 Entering Gaussian System, Link 0=/opt/cluster/programs/g09/g09_d.01/g09//g09
 Input=/home/boittier/MDCM/big_basis_set/butane/butane_opt_freq.com
 Output=/scratch/boittier/butane_opt_freq/butane_opt_freq.out
 Initial command:
 /opt/cluster/programs/g09/g09_d.01/g09/l1.exe "/scratch/boittier/butane_opt_freq/Gau-54055.inp" -scrdir="/scratch/boittier/butane_opt_freq/"
 Entering Link 1 = /opt/cluster/programs/g09/g09_d.01/g09/l1.exe PID=     54056.
  
 Copyright (c) 1988,1990,1992,1993,1995,1998,2003,2009,2013,
            Gaussian, Inc.  All Rights Reserved.
  
 This is part of the Gaussian(R) 09 program.  It is based on
 the Gaussian(R) 03 system (copyright 2003, Gaussian, Inc.),
 the Gaussian(R) 98 system (copyright 1998, Gaussian, Inc.),
 the Gaussian(R) 94 system (copyright 1995, Gaussian, Inc.),
 the Gaussian 92(TM) system (copyright 1992, Gaussian, Inc.),
 the Gaussian 90(TM) system (copyright 1990, Gaussian, Inc.),
 the Gaussian 88(TM) system (copyright 1988, Gaussian, Inc.),
 the Gaussian 86(TM) system (copyright 1986, Carnegie Mellon
 University), and the Gaussian 82(TM) system (copyright 1983,
 Carnegie Mellon University). Gaussian is a federally registered
 trademark of Gaussian, Inc.
  
 This software contains proprietary and confidential information,
 including trade secrets, belonging to Gaussian, Inc.
  
 This software is provided under written license and may be
 used, copied, transmitted, or stored only in accord with that
 written license.
  
 The following legend is applicable only to US Government
 contracts under FAR:
  
                    RESTRICTED RIGHTS LEGEND
  
 Use, reproduction and disclosure by the US Government is
 subject to restrictions as set forth in subparagraphs (a)
 and (c) of the Commercial Computer Software - Restricted
 Rights clause in FAR 52.227-19.
  
 Gaussian, Inc.
 340 Quinnipiac St., Bldg. 40, Wallingford CT 06492
  
  
 ---------------------------------------------------------------
 Warning -- This program may not be used in any manner that
 competes with the business of Gaussian, Inc. or will provide
 assistance to any competitor of Gaussian, Inc.  The licensee
 of this program is prohibited from giving any competitor of
 Gaussian, Inc. access to this program.  By using this program,
 the user acknowledges that Gaussian, Inc. is engaged in the
 business of creating and licensing software in the field of
 computational chemistry and represents and warrants to the
 licensee that it is not a competitor of Gaussian, Inc. and that
 it will not use this program in any manner prohibited above.
 ---------------------------------------------------------------
  

 Cite this work as:
 Gaussian 09, Revision D.01,
 M. J. Frisch, G. W. Trucks, H. B. Schlegel, G. E. Scuseria, 
 M. A. Robb, J. R. Cheeseman, G. Scalmani, V. Barone, B. Mennucci, 
 G. A. Petersson, H. Nakatsuji, M. Caricato, X. Li, H. P. Hratchian, 
 A. F. Izmaylov, J. Bloino, G. Zheng, J. L. Sonnenberg, M. Hada, 
 M. Ehara, K. Toyota, R. Fukuda, J. Hasegawa, M. Ishida, T. Nakajima, 
 Y. Honda, O. Kitao, H. Nakai, T. Vreven, J. A. Montgomery, Jr., 
 J. E. Peralta, F. Ogliaro, M. Bearpark, J. J. Heyd, E. Brothers, 
 K. N. Kudin, V. N. Staroverov, T. Keith, R. Kobayashi, J. Normand, 
 K. Raghavachari, A. Rendell, J. C. Burant, S. S. Iyengar, J. Tomasi, 
 M. Cossi, N. Rega, J. M. Millam, M. Klene, J. E. Knox, J. B. Cross, 
 V. Bakken, C. Adamo, J. Jaramillo, R. Gomperts, R. E. Stratmann, 
 O. Yazyev, A. J. Austin, R. Cammi, C. Pomelli, J. W. Ochterski, 
 R. L. Martin, K. Morokuma, V. G. Zakrzewski, G. A. Voth, 
 P. Salvador, J. J. Dannenberg, S. Dapprich, A. D. Daniels, 
 O. Farkas, J. B. Foresman, J. V. Ortiz, J. Cioslowski, 
 and D. J. Fox, Gaussian, Inc., Wallingford CT, 2013.
 
 ******************************************
 Gaussian 09:  ES64L-G09RevD.01 24-Apr-2013
                20-Aug-2020 
 ******************************************
 %chk=butane_opt.chk
 %nproc=8
 Will use up to    8 processors via shared memory.
 %mem=16GB
 -------------------------------------
 #p B2PLYPD3/Def2QZVP opt freq=NoRaman
 -------------------------------------
 1/18=20,19=15,38=1/1,3;
 2/9=110,12=2,17=6,18=5,40=1/2;
 3/5=45,7=101,11=9,16=1,25=1,30=1,71=1,74=-60/1,2,3;
 4//1;
 5/5=2,38=5/2;
 8/6=4,10=1/1;
 9/15=2,16=-3/6;
 10/5=1/2;
 6/7=2,8=2,9=2,10=2/1;
 7/12=2/1,2,3,16;
 1/18=20,19=15/3(2);
 2/9=110/2;
 99//99;
 2/9=110/2;
 3/5=45,7=101,11=9,16=1,25=1,30=1,71=1,74=-60/1,2,3;
 4/5=5,16=3,69=1/1;
 5/5=2,38=5/2;
 8/6=4,10=1/1;
 9/15=2,16=-3/6;
 10/5=1/2;
 7/12=2/1,2,3,16;
 1/18=20,19=15/3(-8);
 2/9=110/2;
 6/7=2,8=2,9=2,10=2/1;
 99//99;
 Leave Link    1 at Thu Aug 20 12:33:32 2020, MaxMem=  2147483648 cpu:         0.6
 (Enter /opt/cluster/programs/g09/g09_d.01/g09/l101.exe)
 ----------
 butane_opt
 ----------
 Symbolic Z-matrix:
 Charge =  0 Multiplicity = 1
 C                    -3.92702   0.26476   0.01706 
 C                    -2.6954   -0.62635   0.03953 
 H                    -4.83606  -0.34442   0.03859 
 H                    -3.95072   0.87845  -0.88912 
 H                    -3.94449   0.93191   0.88479 
 C                    -1.40885   0.19632   0.01103 
 H                    -2.7247   -1.30223  -0.82308 
 H                    -2.71896  -1.2499    0.94086 
 C                    -0.17724  -0.69483   0.03187 
 H                    -1.37909   0.87132   0.87432 
 H                    -1.38574   0.8208   -0.88967 
 H                    -0.15354  -1.3103    0.93684 
 H                     0.73181  -0.08562   0.0115 
 H                    -0.15977  -1.36027  -0.83717 
 
 NAtoms=     14 NQM=       14 NQMF=       0 NMMI=      0 NMMIF=      0
                NMic=       0 NMicF=      0.
                    Isotopes and Nuclear Properties:
 (Nuclear quadrupole moments (NQMom) in fm**2, nuclear magnetic moments (NMagM)
  in nuclear magnetons)

  Atom         1           2           3           4           5           6           7           8           9          10
 IAtWgt=          12          12           1           1           1          12           1           1          12           1
 AtmWgt=  12.0000000  12.0000000   1.0078250   1.0078250   1.0078250  12.0000000   1.0078250   1.0078250  12.0000000   1.0078250
 NucSpn=           0           0           1           1           1           0           1           1           0           1
 AtZEff=   0.0000000   0.0000000   0.0000000   0.0000000   0.0000000   0.0000000   0.0000000   0.0000000   0.0000000   0.0000000
 NQMom=    0.0000000   0.0000000   0.0000000   0.0000000   0.0000000   0.0000000   0.0000000   0.0000000   0.0000000   0.0000000
 NMagM=    0.0000000   0.0000000   2.7928460   2.7928460   2.7928460   0.0000000   2.7928460   2.7928460   0.0000000   2.7928460
 AtZNuc=   6.0000000   6.0000000   1.0000000   1.0000000   1.0000000   6.0000000   1.0000000   1.0000000   6.0000000   1.0000000

  Atom        11          12          13          14
 IAtWgt=           1           1           1           1
 AtmWgt=   1.0078250   1.0078250   1.0078250   1.0078250
 NucSpn=           1           1           1           1
 AtZEff=   0.0000000   0.0000000   0.0000000   0.0000000
 NQMom=    0.0000000   0.0000000   0.0000000   0.0000000
 NMagM=    2.7928460   2.7928460   2.7928460   2.7928460
 AtZNuc=   1.0000000   1.0000000   1.0000000   1.0000000
 Leave Link  101 at Thu Aug 20 12:33:33 2020, MaxMem=  2147483648 cpu:         2.3
 (Enter /opt/cluster/programs/g09/g09_d.01/g09/l103.exe)

 GradGradGradGradGradGradGradGradGradGradGradGradGradGradGradGradGradGrad
 Berny optimization.
 Initialization pass.
                           ----------------------------
                           !    Initial Parameters    !
                           ! (Angstroms and Degrees)  !
 --------------------------                            --------------------------
 ! Name  Definition              Value          Derivative Info.                !
 --------------------------------------------------------------------------------
 ! R1    R(1,2)                  1.5204         estimate D2E/DX2                !
 ! R2    R(1,3)                  1.0945         estimate D2E/DX2                !
 ! R3    R(1,4)                  1.0947         estimate D2E/DX2                !
 ! R4    R(1,5)                  1.0947         estimate D2E/DX2                !
 ! R5    R(2,6)                  1.5274         estimate D2E/DX2                !
 ! R6    R(2,7)                  1.0963         estimate D2E/DX2                !
 ! R7    R(2,8)                  1.0963         estimate D2E/DX2                !
 ! R8    R(6,9)                  1.5203         estimate D2E/DX2                !
 ! R9    R(6,10)                 1.0963         estimate D2E/DX2                !
 ! R10   R(6,11)                 1.0963         estimate D2E/DX2                !
 ! R11   R(9,12)                 1.0947         estimate D2E/DX2                !
 ! R12   R(9,13)                 1.0945         estimate D2E/DX2                !
 ! R13   R(9,14)                 1.0947         estimate D2E/DX2                !
 ! A1    A(2,1,3)              110.2616         estimate D2E/DX2                !
 ! A2    A(2,1,4)              110.9993         estimate D2E/DX2                !
 ! A3    A(2,1,5)              111.0031         estimate D2E/DX2                !
 ! A4    A(3,1,4)              108.079          estimate D2E/DX2                !
 ! A5    A(3,1,5)              108.0809         estimate D2E/DX2                !
 ! A6    A(4,1,5)              108.3106         estimate D2E/DX2                !
 ! A7    A(1,2,6)              111.4934         estimate D2E/DX2                !
 ! A8    A(1,2,7)              109.1525         estimate D2E/DX2                !
 ! A9    A(1,2,8)              109.1552         estimate D2E/DX2                !
 ! A10   A(6,2,7)              109.8716         estimate D2E/DX2                !
 ! A11   A(6,2,8)              109.8657         estimate D2E/DX2                !
 ! A12   A(7,2,8)              107.1994         estimate D2E/DX2                !
 ! A13   A(2,6,9)              111.4936         estimate D2E/DX2                !
 ! A14   A(2,6,10)             109.8659         estimate D2E/DX2                !
 ! A15   A(2,6,11)             109.8717         estimate D2E/DX2                !
 ! A16   A(9,6,10)             109.155          estimate D2E/DX2                !
 ! A17   A(9,6,11)             109.1526         estimate D2E/DX2                !
 ! A18   A(10,6,11)            107.199          estimate D2E/DX2                !
 ! A19   A(6,9,12)             111.0035         estimate D2E/DX2                !
 ! A20   A(6,9,13)             110.2621         estimate D2E/DX2                !
 ! A21   A(6,9,14)             110.9992         estimate D2E/DX2                !
 ! A22   A(12,9,13)            108.0804         estimate D2E/DX2                !
 ! A23   A(12,9,14)            108.3107         estimate D2E/DX2                !
 ! A24   A(13,9,14)            108.0787         estimate D2E/DX2                !
 ! D1    D(3,1,2,6)           -179.9684         estimate D2E/DX2                !
 ! D2    D(3,1,2,7)             58.4652         estimate D2E/DX2                !
 ! D3    D(3,1,2,8)            -58.4077         estimate D2E/DX2                !
 ! D4    D(4,1,2,6)             60.2939         estimate D2E/DX2                !
 ! D5    D(4,1,2,7)            -61.2724         estimate D2E/DX2                !
 ! D6    D(4,1,2,8)           -178.1454         estimate D2E/DX2                !
 ! D7    D(5,1,2,6)            -60.2261         estimate D2E/DX2                !
 ! D8    D(5,1,2,7)            178.2076         estimate D2E/DX2                !
 ! D9    D(5,1,2,8)             61.3347         estimate D2E/DX2                !
 ! D10   D(1,2,6,9)           -179.934          estimate D2E/DX2                !
 ! D11   D(1,2,6,10)            58.9184         estimate D2E/DX2                !
 ! D12   D(1,2,6,11)           -58.7855         estimate D2E/DX2                !
 ! D13   D(7,2,6,9)            -58.7858         estimate D2E/DX2                !
 ! D14   D(7,2,6,10)          -179.9334         estimate D2E/DX2                !
 ! D15   D(7,2,6,11)            62.3627         estimate D2E/DX2                !
 ! D16   D(8,2,6,9)             58.9184         estimate D2E/DX2                !
 ! D17   D(8,2,6,10)           -62.2292         estimate D2E/DX2                !
 ! D18   D(8,2,6,11)          -179.9331         estimate D2E/DX2                !
 ! D19   D(2,6,9,12)           -60.226          estimate D2E/DX2                !
 ! D20   D(2,6,9,13)          -179.9683         estimate D2E/DX2                !
 ! D21   D(2,6,9,14)            60.2942         estimate D2E/DX2                !
 ! D22   D(10,6,9,12)           61.335          estimate D2E/DX2                !
 ! D23   D(10,6,9,13)          -58.4073         estimate D2E/DX2                !
 ! D24   D(10,6,9,14)         -178.1448         estimate D2E/DX2                !
 ! D25   D(11,6,9,12)          178.2073         estimate D2E/DX2                !
 ! D26   D(11,6,9,13)           58.465          estimate D2E/DX2                !
 ! D27   D(11,6,9,14)          -61.2725         estimate D2E/DX2                !
 --------------------------------------------------------------------------------
 Trust Radius=3.00D-01 FncErr=1.00D-07 GrdErr=1.00D-07
 Number of steps in this run=     74 maximum allowed number of steps=    100.
 GradGradGradGradGradGradGradGradGradGradGradGradGradGradGradGradGradGrad

 Leave Link  103 at Thu Aug 20 12:33:34 2020, MaxMem=  2147483648 cpu:         0.1
 (Enter /opt/cluster/programs/g09/g09_d.01/g09/l202.exe)
                          Input orientation:                          
 ---------------------------------------------------------------------
 Center     Atomic      Atomic             Coordinates (Angstroms)
 Number     Number       Type             X           Y           Z
 ---------------------------------------------------------------------
      1          6           0       -3.927020    0.264760    0.017060
      2          6           0       -2.695400   -0.626350    0.039530
      3          1           0       -4.836060   -0.344420    0.038590
      4          1           0       -3.950720    0.878450   -0.889120
      5          1           0       -3.944490    0.931910    0.884790
      6          6           0       -1.408850    0.196320    0.011030
      7          1           0       -2.724700   -1.302230   -0.823080
      8          1           0       -2.718960   -1.249900    0.940860
      9          6           0       -0.177240   -0.694830    0.031870
     10          1           0       -1.379090    0.871320    0.874320
     11          1           0       -1.385740    0.820800   -0.889670
     12          1           0       -0.153540   -1.310300    0.936840
     13          1           0        0.731810   -0.085620    0.011500
     14          1           0       -0.159770   -1.360270   -0.837170
 ---------------------------------------------------------------------
                    Distance matrix (angstroms):
                    1          2          3          4          5
     1  C    0.000000
     2  C    1.520352   0.000000
     3  H    1.094494   2.159146   0.000000
     4  H    1.094687   2.168558   1.771972   0.000000
     5  H    1.094692   2.168609   1.771996   1.774726   0.000000
     6  C    2.519107   1.527354   3.469716   2.781488   2.781010
     7  H    2.146361   1.096252   2.473402   2.502569   3.065304
     8  H    2.146395   1.096251   2.473075   3.065279   2.503071
     9  C    3.870644   2.519103   4.671984   4.190774   4.191173
    10  H    2.755859   2.161611   3.758605   3.118181   2.566137
    11  H    2.754895   2.161681   3.758206   2.565628   3.115807
    12  H    4.191177   2.781008   4.864748   4.747982   4.404715
    13  H    4.671990   3.469718   5.573947   4.864837   4.864749
    14  H    4.190776   2.781485   4.864832   4.402939   4.747983
                    6          7          8          9         10
     6  C    0.000000
     7  H    2.161678   0.000000
     8  H    2.161602   1.764725   0.000000
     9  C    1.520344   2.754891   2.755849   0.000000
    10  H    1.096257   3.068575   2.509831   2.146390   0.000000
    11  H    1.096253   2.510877   3.068569   2.146356   1.764726
    12  H    2.168601   3.115806   2.566134   1.094685   2.503068
    13  H    2.159147   3.758208   3.758600   1.094497   2.473073
    14  H    2.168552   2.565625   3.118177   1.094690   3.065279
                   11         12         13         14
    11  H    0.000000
    12  H    3.065297   0.000000
    13  H    2.473403   1.771988   0.000000
    14  H    2.502564   1.774725   1.771973   0.000000
 Stoichiometry    C4H10
 Framework group  C1[X(C4H10)]
 Deg. of freedom    36
 Full point group                 C1      NOp   1
 Largest Abelian subgroup         C1      NOp   1
 Largest concise Abelian subgroup C1      NOp   1
                         Standard orientation:                         
 ---------------------------------------------------------------------
 Center     Atomic      Atomic             Coordinates (Angstroms)
 Number     Number       Type             X           Y           Z
 ---------------------------------------------------------------------
      1          6           0        1.931250    0.125505    0.000383
      2          6           0        0.556259   -0.523239   -0.000435
      3          1           0        2.712172   -0.641358   -0.000199
      4          1           0        2.069578    0.750545    0.888375
      5          1           0        2.069898    0.752266   -0.886351
      6          6           0       -0.556261    0.523235   -0.000431
      7          1           0        0.461956   -1.167359    0.881599
      8          1           0        0.462568   -1.166547   -0.883126
      9          6           0       -1.931246   -0.125503    0.000381
     10          1           0       -0.462574    1.166556   -0.883121
     11          1           0       -0.461958    1.167354    0.881604
     12          1           0       -2.069900   -0.752256   -0.886349
     13          1           0       -2.712174    0.641358   -0.000197
     14          1           0       -2.069576   -0.750546    0.888375
 ---------------------------------------------------------------------
 Rotational constants (GHZ):     23.1256152      3.7102110      3.4748093
 Leave Link  202 at Thu Aug 20 12:33:34 2020, MaxMem=  2147483648 cpu:         0.0
 (Enter /opt/cluster/programs/g09/g09_d.01/g09/l301.exe)
 Standard basis: def2QZVP (5D, 7F)
 Ernie: Thresh=  0.10000D-02 Tol=  0.10000D-05 Strict=F.
 There are   638 symmetry adapted cartesian basis functions of A   symmetry.
 There are   528 symmetry adapted basis functions of A   symmetry.
   528 basis functions,   748 primitive gaussians,   638 cartesian basis functions
    17 alpha electrons       17 beta electrons
       nuclear repulsion energy       131.1635491460 Hartrees.
 IExCor=  419 DFT=T Ex+Corr=B2PLYPD3 ExCW=0 ScaHFX=  0.530000
 ScaDFX=  0.470000  0.470000  0.730000  0.730000 ScalE2=  0.270000  0.270000
 IRadAn=      0 IRanWt=     -1 IRanGd=            0 ICorTp=0 IEmpDi=141
 NAtoms=   14 NActive=   14 NUniq=   14 SFac= 1.00D+00 NAtFMM=   60 NAOKFM=F Big=F
 Integral buffers will be    131072 words long.
 Regular integral format.
 Two-electron integral symmetry is turned on.
 R6Disp:  Grimme-D3(BJ) Dispersion energy=       -0.0064566412 Hartrees.
 Nuclear repulsion after empirical dispersion term =      131.1570925048 Hartrees.
 Leave Link  301 at Thu Aug 20 12:33:35 2020, MaxMem=  2147483648 cpu:         0.5
 (Enter /opt/cluster/programs/g09/g09_d.01/g09/l302.exe)
 NPDir=0 NMtPBC=     1 NCelOv=     1 NCel=       1 NClECP=     1 NCelD=      1
         NCelK=      1 NCelE2=     1 NClLst=     1 CellRange=     0.0.
 One-electron integrals computed using PRISM.
   1 Symmetry operations used in ECPInt.
 ECPInt:  NShTT=   14196 NPrTT=   30597 LenC2=   13890 LenP2D=   26049.
 LDataN:  DoStor=T MaxTD1= 8 Len=  415
 NBasis=   528 RedAO= T EigKep=  3.81D-05  NBF=   528
 NBsUse=   528 1.00D-06 EigRej= -1.00D+00 NBFU=   528
 Precomputing XC quadrature grid using
 IXCGrd= 4 IRadAn=           0 IRanWt=          -1 IRanGd=           0 AccXCQ= 0.00D+00.
 Generated NRdTot=       0 NPtTot=           0 NUsed=           0 NTot=          32
 NSgBfM=   638   638   638   638   638 MxSgAt=    14 MxSgA2=    14.
 Leave Link  302 at Thu Aug 20 12:33:36 2020, MaxMem=  2147483648 cpu:         4.6
 (Enter /opt/cluster/programs/g09/g09_d.01/g09/l303.exe)
 DipDrv:  MaxL=1.
 Leave Link  303 at Thu Aug 20 12:33:37 2020, MaxMem=  2147483648 cpu:         0.5
 (Enter /opt/cluster/programs/g09/g09_d.01/g09/l401.exe)
 ExpMin= 7.60D-02 ExpMax= 6.70D+04 ExpMxC= 6.47D+02 IAcc=2 IRadAn=         4 AccDes= 0.00D+00
 Harris functional with IExCor=  419 and IRadAn=       4 diagonalized for initial guess.
 HarFok:  IExCor=  419 AccDes= 0.00D+00 IRadAn=         4 IDoV= 1 UseB2=F ITyADJ=14
 ICtDFT=  3500011 ScaDFX=  1.000000  1.000000  1.000000  1.000000
 FoFCou: FMM=F IPFlag=           0 FMFlag=      100000 FMFlg1=           0
         NFxFlg=           0 DoJE=T BraDBF=F KetDBF=T FulRan=T
         wScrn=  0.000000 ICntrl=     500 IOpCl=  0 I1Cent=   200000004 NGrid=           0
         NMat0=    1 NMatS0=      1 NMatT0=    0 NMatD0=    1 NMtDS0=    0 NMtDT0=    0
 Petite list used in FoFCou.
 DSYEVD-2 returned Info=      140713 IAlg= 4 N=   528 NDim=   528 NE2=     4065653 trying  DSYEV.
 Harris En= -158.627786154196    
 JPrj=0 DoOrth=F DoCkMO=F.
 Leave Link  401 at Thu Aug 20 12:33:39 2020, MaxMem=  2147483648 cpu:        15.6
 (Enter /opt/cluster/programs/g09/g09_d.01/g09/l502.exe)
 Closed shell SCF:
 Using DIIS extrapolation, IDIIS=  1040.
 Integral symmetry usage will be decided dynamically.
 IVT=     1249338 IEndB=     1249338 NGot=  2147483648 MDV=  2146658633
 LenX=  2146658633 LenY=  2146250951
 Requested convergence on RMS density matrix=1.00D-08 within 128 cycles.
 Requested convergence on MAX density matrix=1.00D-06.
 Requested convergence on             energy=1.00D-06.
 No special actions if energy rises.
 Fock matrices will be formed incrementally for  20 cycles.
 Integral accuracy reduced to 1.0D-05 until final iterations.

 Cycle   1  Pass 0  IDiag  1:
 FoFJK:  IHMeth= 1 ICntrl=       0 DoSepK=F KAlg= 0 I1Cent=   0 FoldK=F
 IRaf= 940000000 NMat=   1 IRICut=       1 DoRegI=T DoRafI=F ISym2E= 0.
 FoFCou: FMM=F IPFlag=           0 FMFlag=      100000 FMFlg1=           0
         NFxFlg=           0 DoJE=F BraDBF=F KetDBF=F FulRan=T
         wScrn=  0.000000 ICntrl=       0 IOpCl=  0 I1Cent=           0 NGrid=           0
         NMat0=    1 NMatS0=      1 NMatT0=    0 NMatD0=    1 NMtDS0=    0 NMtDT0=    0
 Symmetry not used in FoFCou.
 E= -157.874229093696    
 DIIS: error= 3.41D-02 at cycle   1 NSaved=   1.
 NSaved= 1 IEnMin= 1 EnMin= -157.874229093696     IErMin= 1 ErrMin= 3.41D-02
 ErrMax= 3.41D-02  0.00D+00 EMaxC= 1.00D-01 BMatC= 3.30D-01 BMatP= 3.30D-01
 IDIUse=3 WtCom= 6.59D-01 WtEn= 3.41D-01
 Coeff-Com:  0.100D+01
 Coeff-En:   0.100D+01
 Coeff:      0.100D+01
 Gap=     0.383 Goal=   None    Shift=    0.000
 GapD=    0.383 DampG=1.000 DampE=0.500 DampFc=0.5000 IDamp=-1.
 Damping current iteration by 5.00D-01
 RMSDP=9.27D-04 MaxDP=5.34D-02              OVMax= 1.75D-01

 Cycle   2  Pass 0  IDiag  1:
 RMSU=  4.41D-04    CP:  9.53D-01
 E= -158.007984881378     Delta-E=       -0.133755787682 Rises=F Damp=T
 DIIS: error= 1.07D-02 at cycle   2 NSaved=   2.
 NSaved= 2 IEnMin= 2 EnMin= -158.007984881378     IErMin= 2 ErrMin= 1.07D-02
 ErrMax= 1.07D-02  0.00D+00 EMaxC= 1.00D-01 BMatC= 3.16D-02 BMatP= 3.30D-01
 IDIUse=3 WtCom= 8.93D-01 WtEn= 1.07D-01
 Coeff-Com: -0.190D+00 0.119D+01
 Coeff-En:   0.000D+00 0.100D+01
 Coeff:     -0.170D+00 0.117D+01
 Gap=     0.455 Goal=   None    Shift=    0.000
 DSYEVD-2 returned Info=      140713 IAlg= 4 N=   528 NDim=   528 NE2=     4064868 trying  DSYEV.
 RMSDP=2.31D-04 MaxDP=1.09D-02 DE=-1.34D-01 OVMax= 9.50D-02

 Cycle   3  Pass 0  IDiag  1:
 RMSU=  2.19D-04    CP:  9.38D-01  8.72D-01
 E= -158.130529460079     Delta-E=       -0.122544578701 Rises=F Damp=F
 DIIS: error= 4.88D-03 at cycle   3 NSaved=   3.
 NSaved= 3 IEnMin= 3 EnMin= -158.130529460079     IErMin= 3 ErrMin= 4.88D-03
 ErrMax= 4.88D-03  0.00D+00 EMaxC= 1.00D-01 BMatC= 2.40D-03 BMatP= 3.16D-02
 IDIUse=3 WtCom= 9.51D-01 WtEn= 4.88D-02
 Coeff-Com: -0.941D-01 0.194D+00 0.900D+00
 Coeff-En:   0.000D+00 0.000D+00 0.100D+01
 Coeff:     -0.895D-01 0.185D+00 0.905D+00
 Gap=     0.433 Goal=   None    Shift=    0.000
 RMSDP=5.49D-05 MaxDP=3.83D-03 DE=-1.23D-01 OVMax= 1.19D-02

 Cycle   4  Pass 0  IDiag  1:
 RMSU=  4.40D-05    CP:  9.35D-01  9.43D-01  9.88D-01
 E= -158.132766510240     Delta-E=       -0.002237050161 Rises=F Damp=F
 DIIS: error= 1.09D-03 at cycle   4 NSaved=   4.
 NSaved= 4 IEnMin= 4 EnMin= -158.132766510240     IErMin= 4 ErrMin= 1.09D-03
 ErrMax= 1.09D-03  0.00D+00 EMaxC= 1.00D-01 BMatC= 2.20D-04 BMatP= 2.40D-03
 IDIUse=3 WtCom= 9.89D-01 WtEn= 1.09D-02
 Coeff-Com: -0.273D-01 0.402D-01 0.328D+00 0.660D+00
 Coeff-En:   0.000D+00 0.000D+00 0.000D+00 0.100D+01
 Coeff:     -0.270D-01 0.397D-01 0.324D+00 0.663D+00
 Gap=     0.434 Goal=   None    Shift=    0.000
 RMSDP=1.63D-05 MaxDP=1.12D-03 DE=-2.24D-03 OVMax= 3.58D-03

 Cycle   5  Pass 0  IDiag  1:
 RMSU=  1.21D-05    CP:  9.35D-01  9.30D-01  1.02D+00  8.58D-01
 E= -158.132968208816     Delta-E=       -0.000201698576 Rises=F Damp=F
 DIIS: error= 2.04D-04 at cycle   5 NSaved=   5.
 NSaved= 5 IEnMin= 5 EnMin= -158.132968208816     IErMin= 5 ErrMin= 2.04D-04
 ErrMax= 2.04D-04  0.00D+00 EMaxC= 1.00D-01 BMatC= 9.12D-06 BMatP= 2.20D-04
 IDIUse=3 WtCom= 9.98D-01 WtEn= 2.04D-03
 Coeff-Com: -0.212D-02-0.139D-03 0.432D-01 0.204D+00 0.755D+00
 Coeff-En:   0.000D+00 0.000D+00 0.000D+00 0.000D+00 0.100D+01
 Coeff:     -0.212D-02-0.138D-03 0.432D-01 0.204D+00 0.755D+00
 Gap=     0.434 Goal=   None    Shift=    0.000
 RMSDP=3.46D-06 MaxDP=1.84D-04 DE=-2.02D-04 OVMax= 6.61D-04

 Initial convergence to 1.0D-05 achieved.  Increase integral accuracy.
 Cycle   6  Pass 1  IDiag  1:
 E= -158.133000191977     Delta-E=       -0.000031983161 Rises=F Damp=F
 DIIS: error= 8.58D-05 at cycle   1 NSaved=   1.
 NSaved= 1 IEnMin= 1 EnMin= -158.133000191977     IErMin= 1 ErrMin= 8.58D-05
 ErrMax= 8.58D-05  0.00D+00 EMaxC= 1.00D-01 BMatC= 6.41D-07 BMatP= 6.41D-07
 IDIUse=1 WtCom= 1.00D+00 WtEn= 0.00D+00
 Coeff-Com:  0.100D+01
 Coeff:      0.100D+01
 Gap=     0.434 Goal=   None    Shift=    0.000
 RMSDP=3.46D-06 MaxDP=1.84D-04 DE=-3.20D-05 OVMax= 1.55D-04

 Cycle   7  Pass 1  IDiag  1:
 RMSU=  2.71D-05    CP:  1.00D+00
 E= -158.133000582960     Delta-E=       -0.000000390983 Rises=F Damp=F
 DIIS: error= 8.67D-06 at cycle   2 NSaved=   2.
 NSaved= 2 IEnMin= 2 EnMin= -158.133000582960     IErMin= 2 ErrMin= 8.67D-06
 ErrMax= 8.67D-06  0.00D+00 EMaxC= 1.00D-01 BMatC= 1.21D-08 BMatP= 6.41D-07
 IDIUse=1 WtCom= 1.00D+00 WtEn= 0.00D+00
 Coeff-Com:  0.647D-02 0.994D+00
 Coeff:      0.647D-02 0.994D+00
 Gap=     0.434 Goal=   None    Shift=    0.000
 RMSDP=9.08D-07 MaxDP=6.68D-05 DE=-3.91D-07 OVMax= 4.25D-05

 Cycle   8  Pass 1  IDiag  1:
 RMSU=  3.22D-07    CP:  1.00D+00  1.03D+00
 E= -158.133000593730     Delta-E=       -0.000000010771 Rises=F Damp=F
 DIIS: error= 6.59D-06 at cycle   3 NSaved=   3.
 NSaved= 3 IEnMin= 3 EnMin= -158.133000593730     IErMin= 3 ErrMin= 6.59D-06
 ErrMax= 6.59D-06  0.00D+00 EMaxC= 1.00D-01 BMatC= 5.48D-09 BMatP= 1.21D-08
 IDIUse=1 WtCom= 1.00D+00 WtEn= 0.00D+00
 Coeff-Com: -0.164D-01 0.390D+00 0.626D+00
 Coeff:     -0.164D-01 0.390D+00 0.626D+00
 Gap=     0.434 Goal=   None    Shift=    0.000
 RMSDP=9.27D-08 MaxDP=6.59D-06 DE=-1.08D-08 OVMax= 1.85D-05

 Cycle   9  Pass 1  IDiag  1:
 RMSU=  8.33D-08    CP:  1.00D+00  1.03D+00  1.00D+00
 E= -158.133000598850     Delta-E=       -0.000000005120 Rises=F Damp=F
 DIIS: error= 1.31D-06 at cycle   4 NSaved=   4.
 NSaved= 4 IEnMin= 4 EnMin= -158.133000598850     IErMin= 4 ErrMin= 1.31D-06
 ErrMax= 1.31D-06  0.00D+00 EMaxC= 1.00D-01 BMatC= 1.64D-10 BMatP= 5.48D-09
 IDIUse=1 WtCom= 1.00D+00 WtEn= 0.00D+00
 Coeff-Com: -0.384D-02-0.657D-02 0.110D+00 0.901D+00
 Coeff:     -0.384D-02-0.657D-02 0.110D+00 0.901D+00
 Gap=     0.434 Goal=   None    Shift=    0.000
 RMSDP=2.62D-08 MaxDP=1.77D-06 DE=-5.12D-09 OVMax= 4.39D-06

 Cycle  10  Pass 1  IDiag  1:
 RMSU=  1.87D-08    CP:  1.00D+00  1.03D+00  1.06D+00  1.05D+00
 E= -158.133000599054     Delta-E=       -0.000000000204 Rises=F Damp=F
 DIIS: error= 2.65D-07 at cycle   5 NSaved=   5.
 NSaved= 5 IEnMin= 5 EnMin= -158.133000599054     IErMin= 5 ErrMin= 2.65D-07
 ErrMax= 2.65D-07  0.00D+00 EMaxC= 1.00D-01 BMatC= 9.91D-12 BMatP= 1.64D-10
 IDIUse=1 WtCom= 1.00D+00 WtEn= 0.00D+00
 Coeff-Com:  0.667D-03-0.323D-01-0.331D-01 0.170D+00 0.895D+00
 Coeff:      0.667D-03-0.323D-01-0.331D-01 0.170D+00 0.895D+00
 Gap=     0.434 Goal=   None    Shift=    0.000
 RMSDP=7.81D-09 MaxDP=4.42D-07 DE=-2.04D-10 OVMax= 1.39D-06

 SCF Done:  E(RB2PLYPD3) =  -158.133000599     A.U. after   10 cycles
            NFock= 10  Conv=0.78D-08     -V/T= 2.0038
 KE= 1.575279165243D+02 PE=-6.283049593731D+02 EE= 1.814869497449D+02
 Leave Link  502 at Thu Aug 20 12:38:49 2020, MaxMem=  2147483648 cpu:      2464.4
 (Enter /opt/cluster/programs/g09/g09_d.01/g09/l801.exe)
 DoSCS=T DFT=T ScalE2(SS,OS)=  0.270000  0.270000
 ExpMin= 7.60D-02 ExpMax= 6.70D+04 ExpMxC= 6.47D+02 IAcc=3 IRadAn=         5 AccDes= 0.00D+00
 HarFok:  IExCor=  205 AccDes= 0.00D+00 IRadAn=         5 IDoV=-2 UseB2=F ITyADJ=14
 ICtDFT= 12500011 ScaDFX=  1.000000  1.000000  1.000000  1.000000
 Largest valence mixing into a core orbital is  1.14D-04
 Largest core mixing into a valence orbital is  1.79D-05
 Range of M.O.s used for correlation:     5   528
 NBasis=   528 NAE=    17 NBE=    17 NFC=     4 NFV=     0
 NROrb=    524 NOA=    13 NOB=    13 NVA=   511 NVB=   511

 **** Warning!!: The largest alpha MO coefficient is  0.28532075D+02

 Leave Link  801 at Thu Aug 20 12:38:49 2020, MaxMem=  2147483648 cpu:         1.1
 (Enter /opt/cluster/programs/g09/g09_d.01/g09/l906.exe)
 DoSCS=T DFT=T ScalE2(SS,OS)=  0.270000  0.270000
 Frozen-core derivative calculation, NFC=   4 NFV=   0.
 FulOut=F Deriv=T AODrv=T NAtomX=    14
   MMem=          16  MDisk=          13 MDiskD=          13
  W3Min=     5726688 MinDsk=    10440787 NBas6D=         638
 NBas2D=      205689    NTT=      203841    LW2=     9246618
    MDV=  2144554510 MDiskM=        7462 NBas2p=      192738
 Fully direct method using O(ONN) memory.
 IMap=   1   2   3   4   5   6   7   8   9  10  11  12  13  14  15  16  17
 JobTyp=1 Pass  1:  I=   5 to   5 NPSUse=  8 ParTrn=T ParDer=T DoDerP=T.
 JobTyp=1 Pass  2:  I=   6 to   6 NPSUse=  8 ParTrn=T ParDer=T DoDerP=T.
 JobTyp=1 Pass  3:  I=   7 to   7 NPSUse=  8 ParTrn=T ParDer=T DoDerP=T.
 JobTyp=1 Pass  4:  I=   8 to   8 NPSUse=  8 ParTrn=T ParDer=T DoDerP=T.
 JobTyp=1 Pass  5:  I=   9 to   9 NPSUse=  8 ParTrn=T ParDer=T DoDerP=T.
 JobTyp=1 Pass  6:  I=  10 to  10 NPSUse=  8 ParTrn=T ParDer=T DoDerP=T.
 JobTyp=1 Pass  7:  I=  11 to  11 NPSUse=  8 ParTrn=T ParDer=T DoDerP=T.
 JobTyp=1 Pass  8:  I=  12 to  12 NPSUse=  8 ParTrn=T ParDer=T DoDerP=T.
 JobTyp=1 Pass  9:  I=  13 to  13 NPSUse=  8 ParTrn=T ParDer=T DoDerP=T.
 JobTyp=1 Pass 10:  I=  14 to  14 NPSUse=  8 ParTrn=T ParDer=T DoDerP=T.
 JobTyp=1 Pass 11:  I=  15 to  15 NPSUse=  8 ParTrn=T ParDer=T DoDerP=T.
 JobTyp=1 Pass 12:  I=  16 to  16 NPSUse=  8 ParTrn=T ParDer=T DoDerP=T.
 JobTyp=1 Pass 13:  I=  17 to  17 NPSUse=  8 ParTrn=T ParDer=T DoDerP=T.
 Spin components of T(2) and E(2):
     alpha-alpha T2 =       0.3979592660D-01 E2=     -0.2610152920D-01
     alpha-beta  T2 =       0.2607612512D+00 E2=     -0.1935688036D+00
     beta-beta   T2 =       0.3979592660D-01 E2=     -0.2610152920D-01
 The integrals were generated  13 times.
 E2(B2PLYPD3) =    -0.2457718620D+00 E(B2PLYPD3) =    -0.15837877246104D+03
 Leave Link  906 at Thu Aug 20 14:59:15 2020, MaxMem=  2147483648 cpu:     67260.2
 (Enter /opt/cluster/programs/g09/g09_d.01/g09/l1002.exe)
 Minotr:  Closed shell wavefunction.
          Computing MP2/KS-MP2 derivatives.
          Using Z-Vector for PSCF gradient.
          Skipping F1 and S1 gradient terms here.
          IDoAtm=11111111111111
          Frozen-core window.
          Direct CPHF calculation.
          Differentiating once with respect to electric field.
                with respect to dipole field.
          Differentiating once with respect to nuclear coordinates.
          Requested convergence is 1.0D-10 RMS, and 1.0D-09 maximum.
          NewPWx=F KeepS1=T KeepF1=T KeepIn=T MapXYZ=F SortEE=F KeepMc=T.
          MDV=    2147482980 using IRadAn=       0.
 Using stored XC quadrature information.
          Solving linear equations separately, MaxMat=       0.
          There are     1 degrees of freedom in the 1st order CPHF.  IDoFFX=0 NUNeed=     1.
 FoFJK:  IHMeth= 1 ICntrl=       0 DoSepK=F KAlg= 0 I1Cent=   0 FoldK=F
 IRaf= 950000000 NMat=   1 IRICut=       1 DoRegI=T DoRafI=F ISym2E=-1.
 FoFCou: FMM=F IPFlag=           0 FMFlag=      100000 FMFlg1=           0
         NFxFlg=           0 DoJE=F BraDBF=F KetDBF=F FulRan=T
         wScrn=  0.000000 ICntrl=       0 IOpCl=  0 I1Cent=           0 NGrid=           0
         NMat0=    1 NMatS0=      1 NMatT0=    0 NMatD0=    1 NMtDS0=    0 NMtDT0=    0
 Petite list used in FoFCou.
 LinEq1:  Iter=  0 NonCon=     1 RMS=6.47D-04 Max=1.29D-02 NDo=     1
 AX will form     1 AO Fock derivatives at one time.
 LinEq1:  Iter=  1 NonCon=     1 RMS=3.05D-04 Max=6.28D-03 NDo=     1
 LinEq1:  Iter=  2 NonCon=     1 RMS=5.26D-05 Max=1.08D-03 NDo=     1
 LinEq1:  Iter=  3 NonCon=     1 RMS=1.76D-05 Max=3.68D-04 NDo=     1
 LinEq1:  Iter=  4 NonCon=     1 RMS=4.84D-06 Max=1.01D-04 NDo=     1
 LinEq1:  Iter=  5 NonCon=     1 RMS=1.01D-06 Max=2.18D-05 NDo=     1
 LinEq1:  Iter=  6 NonCon=     1 RMS=1.35D-07 Max=2.49D-06 NDo=     1
 LinEq1:  Iter=  7 NonCon=     1 RMS=3.14D-08 Max=6.33D-07 NDo=     1
 LinEq1:  Iter=  8 NonCon=     1 RMS=4.07D-09 Max=1.06D-07 NDo=     1
 LinEq1:  Iter=  9 NonCon=     1 RMS=5.65D-10 Max=1.85D-08 NDo=     1
 LinEq1:  Iter= 10 NonCon=     1 RMS=9.30D-11 Max=1.64D-09 NDo=     1
 LinEq1:  Iter= 11 NonCon=     0 RMS=1.93D-11 Max=2.54D-10 NDo=     1
 Linear equations converged to 1.000D-10 1.000D-09 after    11 iterations.
 End of Minotr F.D. properties file   721 does not exist.
 End of Minotr F.D. properties file   722 does not exist.
 End of Minotr F.D. properties file   788 does not exist.
 Leave Link 1002 at Thu Aug 20 15:08:33 2020, MaxMem=  2147483648 cpu:      4430.8
 (Enter /opt/cluster/programs/g09/g09_d.01/g09/l601.exe)
 Copying SCF densities to generalized density rwf, IOpCl= 0 IROHF=0.

 **********************************************************************

            Population analysis using the SCF density.

 **********************************************************************

 Orbital symmetries:
       Occupied  (A) (A) (A) (A) (A) (A) (A) (A) (A) (A) (A) (A)
                 (A) (A) (A) (A) (A)
       Virtual   (A) (A) (A) (A) (A) (A) (A) (A) (A) (A) (A) (A)
                 (A) (A) (A) (A) (A) (A) (A) (A) (A) (A) (A) (A)
                 (A) (A) (A) (A) (A) (A) (A) (A) (A) (A) (A) (A)
                 (A) (A) (A) (A) (A) (A) (A) (A) (A) (A) (A) (A)
                 (A) (A) (A) (A) (A) (A) (A) (A) (A) (A) (A) (A)
                 (A) (A) (A) (A) (A) (A) (A) (A) (A) (A) (A) (A)
                 (A) (A) (A) (A) (A) (A) (A) (A) (A) (A) (A) (A)
                 (A) (A) (A) (A) (A) (A) (A) (A) (A) (A) (A) (A)
                 (A) (A) (A) (A) (A) (A) (A) (A) (A) (A) (A) (A)
                 (A) (A) (A) (A) (A) (A) (A) (A) (A) (A) (A) (A)
                 (A) (A) (A) (A) (A) (A) (A) (A) (A) (A) (A) (A)
                 (A) (A) (A) (A) (A) (A) (A) (A) (A) (A) (A) (A)
                 (A) (A) (A) (A) (A) (A) (A) (A) (A) (A) (A) (A)
                 (A) (A) (A) (A) (A) (A) (A) (A) (A) (A) (A) (A)
                 (A) (A) (A) (A) (A) (A) (A) (A) (A) (A) (A) (A)
                 (A) (A) (A) (A) (A) (A) (A) (A) (A) (A) (A) (A)
                 (A) (A) (A) (A) (A) (A) (A) (A) (A) (A) (A) (A)
                 (A) (A) (A) (A) (A) (A) (A) (A) (A) (A) (A) (A)
                 (A) (A) (A) (A) (A) (A) (A) (A) (A) (A) (A) (A)
                 (A) (A) (A) (A) (A) (A) (A) (A) (A) (A) (A) (A)
                 (A) (A) (A) (A) (A) (A) (A) (A) (A) (A) (A) (A)
                 (A) (A) (A) (A) (A) (A) (A) (A) (A) (A) (A) (A)
                 (A) (A) (A) (A) (A) (A) (A) (A) (A) (A) (A) (A)
                 (A) (A) (A) (A) (A) (A) (A) (A) (A) (A) (A) (A)
                 (A) (A) (A) (A) (A) (A) (A) (A) (A) (A) (A) (A)
                 (A) (A) (A) (A) (A) (A) (A) (A) (A) (A) (A) (A)
                 (A) (A) (A) (A) (A) (A) (A) (A) (A) (A) (A) (A)
                 (A) (A) (A) (A) (A) (A) (A) (A) (A) (A) (A) (A)
                 (A) (A) (A) (A) (A) (A) (A) (A) (A) (A) (A) (A)
                 (A) (A) (A) (A) (A) (A) (A) (A) (A) (A) (A) (A)
                 (A) (A) (A) (A) (A) (A) (A) (A) (A) (A) (A) (A)
                 (A) (A) (A) (A) (A) (A) (A) (A) (A) (A) (A) (A)
                 (A) (A) (A) (A) (A) (A) (A) (A) (A) (A) (A) (A)
                 (A) (A) (A) (A) (A) (A) (A) (A) (A) (A) (A) (A)
                 (A) (A) (A) (A) (A) (A) (A) (A) (A) (A) (A) (A)
                 (A) (A) (A) (A) (A) (A) (A) (A) (A) (A) (A) (A)
                 (A) (A) (A) (A) (A) (A) (A) (A) (A) (A) (A) (A)
                 (A) (A) (A) (A) (A) (A) (A) (A) (A) (A) (A) (A)
                 (A) (A) (A) (A) (A) (A) (A) (A) (A) (A) (A) (A)
                 (A) (A) (A) (A) (A) (A) (A) (A) (A) (A) (A) (A)
                 (A) (A) (A) (A) (A) (A) (A) (A) (A) (A) (A) (A)
                 (A) (A) (A) (A) (A) (A) (A) (A) (A) (A) (A) (A)
                 (A) (A) (A) (A) (A) (A) (A)
 The electronic state is 1-A.
 Alpha  occ. eigenvalues --  -10.60285 -10.60245 -10.59609 -10.59609  -0.91097
 Alpha  occ. eigenvalues --   -0.83118  -0.72252  -0.66390  -0.54256  -0.49455
 Alpha  occ. eigenvalues --   -0.48285  -0.47802  -0.42927  -0.41053  -0.39156
 Alpha  occ. eigenvalues --   -0.38343  -0.37458
 Alpha virt. eigenvalues --    0.05917   0.06936   0.08196   0.08705   0.10938
 Alpha virt. eigenvalues --    0.12105   0.12973   0.14164   0.14616   0.15310
 Alpha virt. eigenvalues --    0.15753   0.16445   0.19707   0.20496   0.21962
 Alpha virt. eigenvalues --    0.22968   0.23419   0.25891   0.26106   0.29024
 Alpha virt. eigenvalues --    0.29379   0.31810   0.33520   0.33739   0.37405
 Alpha virt. eigenvalues --    0.37741   0.38775   0.38785   0.38878   0.39223
 Alpha virt. eigenvalues --    0.39974   0.40078   0.40962   0.43655   0.44261
 Alpha virt. eigenvalues --    0.50112   0.52924   0.56628   0.56760   0.59568
 Alpha virt. eigenvalues --    0.60738   0.61490   0.62658   0.62661   0.65395
 Alpha virt. eigenvalues --    0.67306   0.68895   0.69748   0.70687   0.71611
 Alpha virt. eigenvalues --    0.74452   0.75781   0.77360   0.77700   0.78227
 Alpha virt. eigenvalues --    0.81515   0.84891   0.85663   0.86094   0.87166
 Alpha virt. eigenvalues --    0.88379   0.88934   0.89128   0.89221   0.91012
 Alpha virt. eigenvalues --    0.91684   0.92210   0.96489   0.97270   0.98817
 Alpha virt. eigenvalues --    0.99007   0.99866   1.00468   1.03973   1.04668
 Alpha virt. eigenvalues --    1.05701   1.05906   1.06906   1.07461   1.08486
 Alpha virt. eigenvalues --    1.09971   1.13468   1.14853   1.16010   1.19158
 Alpha virt. eigenvalues --    1.22069   1.22661   1.26426   1.26437   1.31506
 Alpha virt. eigenvalues --    1.33013   1.33751   1.33780   1.36125   1.38062
 Alpha virt. eigenvalues --    1.39221   1.41870   1.42461   1.43730   1.51570
 Alpha virt. eigenvalues --    1.51805   1.52414   1.52562   1.52713   1.54700
 Alpha virt. eigenvalues --    1.60743   1.62455   1.62865   1.63432   1.65841
 Alpha virt. eigenvalues --    1.75642   1.85542   1.87721   1.89692   1.91179
 Alpha virt. eigenvalues --    1.92999   1.94202   1.97308   1.97562   2.00144
 Alpha virt. eigenvalues --    2.00565   2.04789   2.06609   2.07877   2.09254
 Alpha virt. eigenvalues --    2.10186   2.10523   2.11501   2.12129   2.12807
 Alpha virt. eigenvalues --    2.13322   2.13923   2.15161   2.15436   2.16631
 Alpha virt. eigenvalues --    2.17562   2.19784   2.21997   2.22963   2.23310
 Alpha virt. eigenvalues --    2.23986   2.24384   2.26952   2.26991   2.27786
 Alpha virt. eigenvalues --    2.32239   2.35057   2.35831   2.36690   2.36985
 Alpha virt. eigenvalues --    2.41603   2.44735   2.45117   2.45480   2.48006
 Alpha virt. eigenvalues --    2.50118   2.50994   2.54462   2.57724   2.57857
 Alpha virt. eigenvalues --    2.59258   2.62204   2.62686   2.62961   2.65326
 Alpha virt. eigenvalues --    2.65804   2.67229   2.71670   2.71998   2.73193
 Alpha virt. eigenvalues --    2.77046   2.77346   2.79587   2.82846   2.83670
 Alpha virt. eigenvalues --    2.83765   2.84623   2.87160   2.89135   2.90194
 Alpha virt. eigenvalues --    2.93521   2.94517   2.94935   2.95900   2.97619
 Alpha virt. eigenvalues --    2.99013   2.99328   3.01266   3.02036   3.02451
 Alpha virt. eigenvalues --    3.04379   3.05431   3.08405   3.09387   3.11835
 Alpha virt. eigenvalues --    3.14251   3.14911   3.15376   3.15835   3.21130
 Alpha virt. eigenvalues --    3.21590   3.23469   3.24601   3.25482   3.32622
 Alpha virt. eigenvalues --    3.33621   3.35317   3.35800   3.36510   3.40146
 Alpha virt. eigenvalues --    3.43000   3.46722   3.50550   3.50564   3.52657
 Alpha virt. eigenvalues --    3.53907   3.54902   3.55867   3.59756   3.62005
 Alpha virt. eigenvalues --    3.63166   3.70050   3.70199   3.76209   3.80024
 Alpha virt. eigenvalues --    3.82101   3.83372   3.84075   3.86908   3.91981
 Alpha virt. eigenvalues --    3.92604   3.92618   3.92852   3.96618   3.99430
 Alpha virt. eigenvalues --    4.00793   4.01794   4.03118   4.04042   4.05495
 Alpha virt. eigenvalues --    4.13376   4.16691   4.16832   4.21038   4.21149
 Alpha virt. eigenvalues --    4.26258   4.32520   4.34773   4.40336   4.46678
 Alpha virt. eigenvalues --    4.48868   4.48934   4.82884   4.87734   4.88711
 Alpha virt. eigenvalues --    5.13156   5.22860   5.27059   5.31362   5.32105
 Alpha virt. eigenvalues --    5.45199   5.48320   5.53174   5.54911   5.60906
 Alpha virt. eigenvalues --    5.61637   5.62775   5.65529   5.67096   5.69168
 Alpha virt. eigenvalues --    5.70532   5.75058   5.76728   5.87362   5.88555
 Alpha virt. eigenvalues --    5.91753   5.94266   5.95447   5.96288   5.96657
 Alpha virt. eigenvalues --    5.98176   5.98707   6.01580   6.01691   6.02806
 Alpha virt. eigenvalues --    6.06008   6.06843   6.07767   6.08544   6.08899
 Alpha virt. eigenvalues --    6.10572   6.12035   6.15247   6.15813   6.20261
 Alpha virt. eigenvalues --    6.23494   6.23529   6.23652   6.24456   6.25196
 Alpha virt. eigenvalues --    6.29079   6.29148   6.31682   6.31846   6.32080
 Alpha virt. eigenvalues --    6.33748   6.34861   6.37758   6.38682   6.38941
 Alpha virt. eigenvalues --    6.41489   6.44793   6.47245   6.47554   6.51273
 Alpha virt. eigenvalues --    6.52720   6.52754   6.55003   6.55417   6.56294
 Alpha virt. eigenvalues --    6.58541   6.60397   6.62336   6.64049   6.66653
 Alpha virt. eigenvalues --    6.67395   6.68834   6.69899   6.74930   6.75949
 Alpha virt. eigenvalues --    6.80291   6.82078   6.85893   6.86762   6.89108
 Alpha virt. eigenvalues --    6.91441   6.93430   6.93818   6.95480   6.99929
 Alpha virt. eigenvalues --    7.00855   7.06459   7.06594   7.08473   7.11791
 Alpha virt. eigenvalues --    7.12962   7.14694   7.15194   7.15525   7.18089
 Alpha virt. eigenvalues --    7.25022   7.25106   7.31700   7.36174   7.36330
 Alpha virt. eigenvalues --    7.37173   7.42822   7.46962   7.48062   7.51566
 Alpha virt. eigenvalues --    7.52906   7.54652   7.55041   7.58767   7.60541
 Alpha virt. eigenvalues --    7.62960   7.63329   7.64214   7.66937   7.67240
 Alpha virt. eigenvalues --    7.67969   7.70678   7.71571   7.73795   7.74951
 Alpha virt. eigenvalues --    7.77068   7.78227   7.80349   7.81335   7.85539
 Alpha virt. eigenvalues --    7.85782   7.86805   7.89408   7.89982   7.90212
 Alpha virt. eigenvalues --    7.94039   7.96345   7.98624   8.01009   8.01068
 Alpha virt. eigenvalues --    8.03363   8.04855   8.04951   8.04990   8.07437
 Alpha virt. eigenvalues --    8.08369   8.08967   8.13466   8.13954   8.15410
 Alpha virt. eigenvalues --    8.16402   8.21700   8.22465   8.23995   8.24098
 Alpha virt. eigenvalues --    8.27517   8.31801   8.34199   8.39913   8.44702
 Alpha virt. eigenvalues --    8.49260   8.51340   8.52328   8.53246   8.54606
 Alpha virt. eigenvalues --    8.54734   8.56629   8.56668   8.57492   8.59167
 Alpha virt. eigenvalues --    8.61621   8.62666   8.64296   8.64576   8.65036
 Alpha virt. eigenvalues --    8.65442   8.66449   8.69380   8.70583   8.71528
 Alpha virt. eigenvalues --    8.72271   8.73564   8.81527   8.82654   8.84766
 Alpha virt. eigenvalues --    8.85203   8.89315   8.90098   8.91796   8.98712
 Alpha virt. eigenvalues --    9.00928   9.01221   9.04155   9.07733   9.10424
 Alpha virt. eigenvalues --    9.10844   9.16153   9.18089   9.19120   9.19184
 Alpha virt. eigenvalues --    9.20298   9.24013   9.24931   9.28860   9.29166
 Alpha virt. eigenvalues --    9.30542   9.39455   9.40457   9.41672   9.48630
 Alpha virt. eigenvalues --    9.68406   9.68599   9.77326   9.79703   9.82096
 Alpha virt. eigenvalues --    9.88792   9.89245   9.90845   9.94091   9.95745
 Alpha virt. eigenvalues --    9.96320  10.00671  10.03920  10.05727  10.06964
 Alpha virt. eigenvalues --   10.07551  10.11096  10.14086  10.22974  10.27302
 Alpha virt. eigenvalues --   10.28583  10.34724  10.37299  10.47552  10.49161
 Alpha virt. eigenvalues --   10.54037  10.55581  10.55860  10.57501  10.60120
 Alpha virt. eigenvalues --   10.71587  10.81501  10.85195  12.06196  12.12314
 Alpha virt. eigenvalues --   12.27058  12.27798  12.37377  12.39338  13.20696
 Alpha virt. eigenvalues --   13.32023  13.43683  13.49451  29.42594  29.43022
 Alpha virt. eigenvalues --   29.52151  29.58172 149.05971 149.08646 149.15455
 Alpha virt. eigenvalues --  149.21791
          Condensed to atoms (all electrons):
               1          2          3          4          5          6
     1  C    4.692797   0.382060   0.407395   0.404009   0.404004  -0.056041
     2  C    0.382060   4.778969  -0.046663  -0.045802  -0.045792   0.386343
     3  H    0.407395  -0.046663   0.663771  -0.033177  -0.033177   0.010510
     4  H    0.404009  -0.045802  -0.033177   0.667865  -0.036140  -0.006912
     5  H    0.404004  -0.045792  -0.033177  -0.036140   0.667828  -0.006916
     6  C   -0.056041   0.386343   0.010510  -0.006912  -0.006916   4.778968
     7  H   -0.044807   0.397282  -0.004996  -0.005318   0.009739  -0.047452
     8  H   -0.044794   0.397272  -0.005005   0.009738  -0.005304  -0.047440
     9  C    0.008793  -0.056041  -0.000885   0.000019   0.000020   0.382060
    10  H   -0.005721  -0.047440  -0.000042  -0.000004   0.003540   0.397272
    11  H   -0.005741  -0.047452  -0.000038   0.003539  -0.000004   0.397282
    12  H    0.000020  -0.006917  -0.000001  -0.000049   0.000085  -0.045792
    13  H   -0.000885   0.010510   0.000053  -0.000001  -0.000001  -0.046662
    14  H    0.000019  -0.006912  -0.000001   0.000085  -0.000049  -0.045803
               7          8          9         10         11         12
     1  C   -0.044807  -0.044794   0.008793  -0.005721  -0.005741   0.000020
     2  C    0.397282   0.397272  -0.056041  -0.047440  -0.047452  -0.006917
     3  H   -0.004996  -0.005005  -0.000885  -0.000042  -0.000038  -0.000001
     4  H   -0.005318   0.009738   0.000019  -0.000004   0.003539  -0.000049
     5  H    0.009739  -0.005304   0.000020   0.003540  -0.000004   0.000085
     6  C   -0.047452  -0.047440   0.382060   0.397272   0.397282  -0.045792
     7  H    0.707257  -0.045575  -0.005741   0.010293  -0.006165  -0.000004
     8  H   -0.045575   0.707262  -0.005721  -0.006192   0.010293   0.003540
     9  C   -0.005741  -0.005721   4.692796  -0.044795  -0.044807   0.404005
    10  H    0.010293  -0.006192  -0.044795   0.707265  -0.045575  -0.005304
    11  H   -0.006165   0.010293  -0.044807  -0.045575   0.707258   0.009739
    12  H   -0.000004   0.003540   0.404005  -0.005304   0.009739   0.667829
    13  H   -0.000038  -0.000042   0.407395  -0.005005  -0.004996  -0.033178
    14  H    0.003539  -0.000004   0.404009   0.009738  -0.005318  -0.036140
              13         14
     1  C   -0.000885   0.000019
     2  C    0.010510  -0.006912
     3  H    0.000053  -0.000001
     4  H   -0.000001   0.000085
     5  H   -0.000001  -0.000049
     6  C   -0.046662  -0.045803
     7  H   -0.000038   0.003539
     8  H   -0.000042  -0.000004
     9  C    0.407395   0.404009
    10  H   -0.005005   0.009738
    11  H   -0.004996  -0.005318
    12  H   -0.033178  -0.036140
    13  H    0.663773  -0.033177
    14  H   -0.033177   0.667867
 Mulliken charges:
               1
     1  C   -0.141109
     2  C   -0.049417
     3  H    0.042255
     4  H    0.042148
     5  H    0.042167
     6  C   -0.049415
     7  H    0.031985
     8  H    0.031972
     9  C   -0.141107
    10  H    0.031969
    11  H    0.031985
    12  H    0.042167
    13  H    0.042254
    14  H    0.042146
 Sum of Mulliken charges =   0.00000
 Mulliken charges with hydrogens summed into heavy atoms:
               1
     1  C   -0.014540
     2  C    0.014540
     6  C    0.014540
     9  C   -0.014540
 Electronic spatial extent (au):  <R**2>=            419.6171
 Charge=              0.0000 electrons
 Dipole moment (field-independent basis, Debye):
    X=              0.0000    Y=              0.0000    Z=             -0.0001  Tot=              0.0001
 Quadrupole moment (field-independent basis, Debye-Ang):
   XX=            -29.9554   YY=            -28.8157   ZZ=            -28.0072
   XY=             -0.4361   XZ=              0.0000   YZ=              0.0000
 Traceless Quadrupole moment (field-independent basis, Debye-Ang):
   XX=             -1.0293   YY=              0.1104   ZZ=              0.9189
   XY=             -0.4361   XZ=              0.0000   YZ=              0.0000
 Octapole moment (field-independent basis, Debye-Ang**2):
  XXX=             -0.0001  YYY=              0.0000  ZZZ=              0.0012  XYY=              0.0000
  XXY=              0.0000  XXZ=             -0.0026  XZZ=              0.0000  YZZ=              0.0000
  YYZ=             -0.0013  XYZ=             -0.0002
 Hexadecapole moment (field-independent basis, Debye-Ang**3):
 XXXX=           -459.4244 YYYY=            -93.7802 ZZZZ=            -59.2297 XXXY=             -7.1869
 XXXZ=              0.0002 YYYX=             -1.7904 YYYZ=              0.0000 ZZZX=              0.0001
 ZZZY=              0.0000 XXYY=            -87.8130 XXZZ=            -84.5586 YYZZ=            -23.1067
 XXYZ=              0.0000 YYXZ=              0.0000 ZZXY=              1.6591
 N-N= 1.311570925048D+02 E-N=-6.283049863200D+02  KE= 1.575279165243D+02
 No NMR shielding tensors so no spin-rotation constants.
 Leave Link  601 at Thu Aug 20 15:08:34 2020, MaxMem=  2147483648 cpu:         2.6
 (Enter /opt/cluster/programs/g09/g09_d.01/g09/l701.exe)
 Compute integral first derivatives.
 ... and contract with generalized density number  2.
 R6Disp: Adding Grimme-D3(BJ) dispersion energy 1st derivatives to the gradient.
   1 Symmetry operations used in ECPInt.
 ECPInt:  NShTT=   14196 NPrTT=   30597 LenC2=   13890 LenP2D=   26049.
 LDataN:  DoStor=T MaxTD1= 9 Len=  602
 Leave Link  701 at Thu Aug 20 15:08:35 2020, MaxMem=  2147483648 cpu:         2.9
 (Enter /opt/cluster/programs/g09/g09_d.01/g09/l702.exe)
 L702 exits ... SP integral derivatives will be done elsewhere.
 Leave Link  702 at Thu Aug 20 15:08:35 2020, MaxMem=  2147483648 cpu:         0.1
 (Enter /opt/cluster/programs/g09/g09_d.01/g09/l703.exe)
 Compute integral first derivatives, UseDBF=F ICtDFT=           0.
 Integral derivatives from FoFJK, PRISM(SPDF).
 Calling FoFJK, ICntrl=  10002127 FMM=F ISym2X=0 I1Cent= 0 IOpClX= 0 NMat=1 NMatS=1 NMatT=0.
 FoFJK:  IHMeth= 1 ICntrl=10002127 DoSepK=F KAlg= 0 I1Cent=   0 FoldK=F
 IRaf=         0 NMat=   1 IRICut=       1 DoRegI=T DoRafI=F ISym2E= 0.
 FoFCou: FMM=F IPFlag=           0 FMFlag=      100000 FMFlg1=         800
         NFxFlg=           0 DoJE=F BraDBF=F KetDBF=F FulRan=T
         wScrn=  0.000000 ICntrl=10002127 IOpCl=  0 I1Cent=           0 NGrid=           0
         NMat0=    1 NMatS0=      1 NMatT0=    0 NMatD0=    1 NMtDS0=    0 NMtDT0=    0
 Symmetry not used in FoFCou.
 Leave Link  703 at Thu Aug 20 15:10:57 2020, MaxMem=  2147483648 cpu:      1131.4
 (Enter /opt/cluster/programs/g09/g09_d.01/g09/l716.exe)
 Dipole        =-8.29145058D-07-1.85352700D-06-4.21203097D-05
 ***** Axes restored to original set *****
 -------------------------------------------------------------------
 Center     Atomic                   Forces (Hartrees/Bohr)
 Number     Number              X              Y              Z
 -------------------------------------------------------------------
      1        6          -0.006552725   -0.001624771    0.000070834
      2        6          -0.000790754    0.005431777   -0.000153981
      3        1           0.001348373    0.004148754   -0.000128920
      4        1          -0.000303764   -0.001457770    0.003405780
      5        1          -0.000328056   -0.001666325   -0.003307586
      6        6           0.000789203   -0.005425528    0.000159983
      7        1           0.001761698    0.001133595    0.003060245
      8        1           0.001739239    0.000945367   -0.003136689
      9        6           0.006557688    0.001623853   -0.000074826
     10        1          -0.001761926   -0.001128837   -0.003066753
     11        1          -0.001740216   -0.000953600    0.003133385
     12        1           0.000303971    0.001468221   -0.003398049
     13        1          -0.001350174   -0.004149077    0.000122134
     14        1           0.000327441    0.001654343    0.003314444
 -------------------------------------------------------------------
 Cartesian Forces:  Max     0.006557688 RMS     0.002672090
 Leave Link  716 at Thu Aug 20 15:10:58 2020, MaxMem=  2147483648 cpu:         0.4
 (Enter /opt/cluster/programs/g09/g09_d.01/g09/l103.exe)

 GradGradGradGradGradGradGradGradGradGradGradGradGradGradGradGradGradGrad
 Berny optimization.
 FormGI is forming the generalized inverse of G from B-inverse, IUseBI=4.
 Internal  Forces:  Max     0.005763584 RMS     0.002217668
 Search for a local minimum.
 Step number   1 out of a maximum of   74
 All quantities printed in internal units (Hartrees-Bohrs-Radians)
 RMS Force = .22177D-02 SwitMx=.10000D-02 MixMth= 1
 Mixed Optimization -- RFO/linear search
 Second derivative matrix not updated -- first step.
 ITU=  0
     Eigenvalues ---    0.00404   0.00497   0.00497   0.03726   0.03726
     Eigenvalues ---    0.04933   0.04933   0.05608   0.05608   0.05703
     Eigenvalues ---    0.05703   0.08172   0.08172   0.12070   0.12071
     Eigenvalues ---    0.16000   0.16000   0.16000   0.16000   0.16000
     Eigenvalues ---    0.16000   0.21905   0.21905   0.29669   0.30333
     Eigenvalues ---    0.30333   0.34099   0.34100   0.34100   0.34100
     Eigenvalues ---    0.34276   0.34276   0.34277   0.34277   0.34298
     Eigenvalues ---    0.34298
 RFO step:  Lambda=-1.58422285D-03 EMin= 4.04111481D-03
 Linear search not attempted -- first point.
 Iteration  1 RMS(Cart)=  0.02082587 RMS(Int)=  0.00018203
 Iteration  2 RMS(Cart)=  0.00022092 RMS(Int)=  0.00014744
 Iteration  3 RMS(Cart)=  0.00000002 RMS(Int)=  0.00014744
 ITry= 1 IFail=0 DXMaxC= 5.35D-02 DCOld= 1.00D+10 DXMaxT= 3.00D-01 DXLimC= 3.00D+00 Rises=F
 Variable       Old X    -DE/DX   Delta X   Delta X   Delta X     New X
                                 (Linear)    (Quad)   (Total)
    R1        2.87305   0.00437   0.00000   0.01433   0.01433   2.88738
    R2        2.06829  -0.00343   0.00000  -0.00995  -0.00995   2.05834
    R3        2.06866  -0.00363   0.00000  -0.01055  -0.01055   2.05811
    R4        2.06867  -0.00363   0.00000  -0.01055  -0.01055   2.05811
    R5        2.88628  -0.00108   0.00000  -0.00362  -0.00362   2.88266
    R6        2.07162  -0.00315   0.00000  -0.00920  -0.00920   2.06241
    R7        2.07161  -0.00315   0.00000  -0.00920  -0.00920   2.06241
    R8        2.87303   0.00437   0.00000   0.01434   0.01434   2.88738
    R9        2.07163  -0.00316   0.00000  -0.00922  -0.00922   2.06241
   R10        2.07162  -0.00315   0.00000  -0.00921  -0.00921   2.06241
   R11        2.06866  -0.00363   0.00000  -0.01054  -0.01054   2.05811
   R12        2.06830  -0.00343   0.00000  -0.00995  -0.00995   2.05834
   R13        2.06866  -0.00363   0.00000  -0.01055  -0.01055   2.05811
    A1        1.92443   0.00382   0.00000   0.02714   0.02706   1.95149
    A2        1.93730   0.00011   0.00000  -0.00110  -0.00115   1.93615
    A3        1.93737   0.00010   0.00000  -0.00115  -0.00120   1.93617
    A4        1.88633  -0.00167   0.00000  -0.00698  -0.00706   1.87928
    A5        1.88637  -0.00167   0.00000  -0.00701  -0.00709   1.87928
    A6        1.89038  -0.00086   0.00000  -0.01188  -0.01190   1.87848
    A7        1.94593   0.00576   0.00000   0.03112   0.03107   1.97700
    A8        1.90507  -0.00061   0.00000   0.00756   0.00769   1.91276
    A9        1.90512  -0.00062   0.00000   0.00751   0.00765   1.91277
   A10        1.91762  -0.00256   0.00000  -0.01668  -0.01704   1.90059
   A11        1.91752  -0.00256   0.00000  -0.01661  -0.01697   1.90055
   A12        1.87098   0.00039   0.00000  -0.01443  -0.01475   1.85623
   A13        1.94593   0.00576   0.00000   0.03112   0.03107   1.97700
   A14        1.91752  -0.00256   0.00000  -0.01662  -0.01697   1.90055
   A15        1.91762  -0.00256   0.00000  -0.01668  -0.01704   1.90059
   A16        1.90511  -0.00062   0.00000   0.00752   0.00765   1.91277
   A17        1.90507  -0.00061   0.00000   0.00756   0.00769   1.91277
   A18        1.87097   0.00039   0.00000  -0.01443  -0.01475   1.85623
   A19        1.93738   0.00010   0.00000  -0.00115  -0.00120   1.93617
   A20        1.92444   0.00382   0.00000   0.02714   0.02705   1.95149
   A21        1.93730   0.00011   0.00000  -0.00109  -0.00115   1.93615
   A22        1.88636  -0.00167   0.00000  -0.00700  -0.00708   1.87928
   A23        1.89038  -0.00086   0.00000  -0.01188  -0.01190   1.87848
   A24        1.88633  -0.00167   0.00000  -0.00698  -0.00706   1.87927
    D1       -3.14104   0.00000   0.00000  -0.00016  -0.00016  -3.14120
    D2        1.02041  -0.00011   0.00000  -0.00453  -0.00464   1.01577
    D3       -1.01941   0.00011   0.00000   0.00427   0.00438  -1.01503
    D4        1.05233  -0.00048   0.00000  -0.00845  -0.00847   1.04386
    D5       -1.06941  -0.00059   0.00000  -0.01283  -0.01295  -1.08236
    D6       -3.10922  -0.00037   0.00000  -0.00403  -0.00393  -3.11316
    D7       -1.05114   0.00047   0.00000   0.00807   0.00808  -1.04306
    D8        3.11031   0.00036   0.00000   0.00370   0.00360   3.11391
    D9        1.07049   0.00059   0.00000   0.01250   0.01262   1.08311
   D10       -3.14044   0.00000   0.00000  -0.00050  -0.00050  -3.14094
   D11        1.02832  -0.00129   0.00000  -0.01926  -0.01907   1.00925
   D12       -1.02600   0.00129   0.00000   0.01826   0.01807  -1.00793
   D13       -1.02600   0.00129   0.00000   0.01826   0.01807  -1.00793
   D14       -3.14043   0.00000   0.00000  -0.00049  -0.00049  -3.14092
   D15        1.08844   0.00258   0.00000   0.03702   0.03665   1.12509
   D16        1.02832  -0.00129   0.00000  -0.01926  -0.01907   1.00925
   D17       -1.08610  -0.00258   0.00000  -0.03801  -0.03764  -1.12374
   D18       -3.14042   0.00000   0.00000  -0.00049  -0.00049  -3.14092
   D19       -1.05114   0.00047   0.00000   0.00807   0.00808  -1.04306
   D20       -3.14104   0.00000   0.00000  -0.00016  -0.00016  -3.14120
   D21        1.05233  -0.00048   0.00000  -0.00846  -0.00847   1.04386
   D22        1.07050   0.00059   0.00000   0.01249   0.01261   1.08311
   D23       -1.01940   0.00011   0.00000   0.00426   0.00437  -1.01503
   D24       -3.10921  -0.00037   0.00000  -0.00403  -0.00394  -3.11315
   D25        3.11030   0.00036   0.00000   0.00370   0.00361   3.11391
   D26        1.02041  -0.00011   0.00000  -0.00453  -0.00464   1.01577
   D27       -1.06941  -0.00059   0.00000  -0.01283  -0.01295  -1.08236
         Item               Value     Threshold  Converged?
 Maximum Force            0.005764     0.000450     NO 
 RMS     Force            0.002218     0.000300     NO 
 Maximum Displacement     0.053473     0.001800     NO 
 RMS     Displacement     0.020697     0.001200     NO 
 Predicted change in Energy=-7.968217D-04
 Lowest energy point so far.  Saving SCF results.
 GradGradGradGradGradGradGradGradGradGradGradGradGradGradGradGradGradGrad

 Leave Link  103 at Thu Aug 20 15:10:58 2020, MaxMem=  2147483648 cpu:         0.5
 (Enter /opt/cluster/programs/g09/g09_d.01/g09/l202.exe)
                          Input orientation:                          
 ---------------------------------------------------------------------
 Center     Atomic      Atomic             Coordinates (Angstroms)
 Number     Number       Type             X           Y           Z
 ---------------------------------------------------------------------
      1          6           0       -3.951080    0.265783    0.017265
      2          6           0       -2.702029   -0.613981    0.038982
      3          1           0       -4.864357   -0.327435    0.038171
      4          1           0       -3.977482    0.881941   -0.880399
      5          1           0       -3.971225    0.934238    0.876867
      6          6           0       -1.402222    0.183944    0.011157
      7          1           0       -2.718021   -1.293393   -0.814983
      8          1           0       -2.712163   -1.241964    0.931532
      9          6           0       -0.153175   -0.695846    0.031964
     10          1           0       -1.385957    0.862854    0.865515
     11          1           0       -1.392362    0.812454   -0.881026
     12          1           0       -0.126860   -1.313096    0.928882
     13          1           0        0.760105   -0.102604    0.011869
     14          1           0       -0.132941   -1.363254   -0.828448
 ---------------------------------------------------------------------
                    Distance matrix (angstroms):
                    1          2          3          4          5
     1  C    0.000000
     2  C    1.527935   0.000000
     3  H    1.089229   2.181231   0.000000
     4  H    1.089105   2.170214   1.758667   0.000000
     5  H    1.089106   2.170228   1.758669   1.758056   0.000000
     6  C    2.550179   1.525436   3.499802   2.813190   2.812858
     7  H    2.155018   1.091381   2.503538   2.514478   3.065162
     8  H    2.155018   1.091380   2.503277   3.065143   2.514772
     9  C    3.917784   2.550178   4.725569   4.236407   4.236572
    10  H    2.766926   2.143885   3.768362   3.124834   2.586278
    11  H    2.766372   2.143913   3.768158   2.586054   3.123388
    12  H    4.236575   2.812860   4.920241   4.787377   4.453354
    13  H    4.725569   3.499802   5.629015   4.920387   4.920239
    14  H    4.236411   2.813193   4.920390   4.452426   4.787378
                    6          7          8          9         10
     6  C    0.000000
     7  H    2.143912   0.000000
     8  H    2.143886   1.747282   0.000000
     9  C    1.527934   2.766373   2.766927   0.000000
    10  H    1.091381   3.041031   2.488662   2.155018   0.000000
    11  H    1.091381   2.489242   3.041032   2.155018   1.747280
    12  H    2.170230   3.123391   2.586283   1.089106   2.514776
    13  H    2.181231   3.768160   3.768364   1.089229   2.503279
    14  H    2.170214   2.586059   3.124840   1.089105   3.065145
                   11         12         13         14
    11  H    0.000000
    12  H    3.065163   0.000000
    13  H    2.503539   1.758667   0.000000
    14  H    2.514480   1.758056   1.758665   0.000000
 Stoichiometry    C4H10
 Framework group  C1[X(C4H10)]
 Deg. of freedom    36
 Full point group                 C1      NOp   1
 RotChk:  IX=0 Diff= 2.01D-03
 Largest Abelian subgroup         C1      NOp   1
 Largest concise Abelian subgroup C1      NOp   1
                         Standard orientation:                         
 ---------------------------------------------------------------------
 Center     Atomic      Atomic             Coordinates (Angstroms)
 Number     Number       Type             X           Y           Z
 ---------------------------------------------------------------------
      1          6           0        1.955257    0.119284    0.000215
      2          6           0        0.564330   -0.513099   -0.000241
      3          1           0        2.742221   -0.633782   -0.000190
      4          1           0        2.097570    0.745801    0.879631
      5          1           0        2.097683    0.746867   -0.878424
      6          6           0       -0.564331    0.513098   -0.000241
      7          1           0        0.455362   -1.158329    0.873211
      8          1           0        0.455727   -1.157875   -0.874071
      9          6           0       -1.955256   -0.119284    0.000215
     10          1           0       -0.455725    1.157875   -0.874071
     11          1           0       -0.455361    1.158330    0.873209
     12          1           0       -2.097685   -0.746868   -0.878423
     13          1           0       -2.742221    0.633782   -0.000192
     14          1           0       -2.097573   -0.745798    0.879632
 ---------------------------------------------------------------------
 Rotational constants (GHZ):     23.7156807      3.6273835      3.4089752
 Leave Link  202 at Thu Aug 20 15:10:58 2020, MaxMem=  2147483648 cpu:         0.0
 (Enter /opt/cluster/programs/g09/g09_d.01/g09/l301.exe)
 Standard basis: def2QZVP (5D, 7F)
 Ernie: Thresh=  0.10000D-02 Tol=  0.10000D-05 Strict=F.
 There are   638 symmetry adapted cartesian basis functions of A   symmetry.
 There are   528 symmetry adapted basis functions of A   symmetry.
   528 basis functions,   748 primitive gaussians,   638 cartesian basis functions
    17 alpha electrons       17 beta electrons
       nuclear repulsion energy       130.8005065071 Hartrees.
 IExCor=  419 DFT=T Ex+Corr=B2PLYPD3 ExCW=0 ScaHFX=  0.530000
 ScaDFX=  0.470000  0.470000  0.730000  0.730000 ScalE2=  0.270000  0.270000
 IRadAn=      0 IRanWt=     -1 IRanGd=            0 ICorTp=0 IEmpDi=141
 NAtoms=   14 NActive=   14 NUniq=   14 SFac= 1.00D+00 NAtFMM=   60 NAOKFM=F Big=F
 Integral buffers will be    131072 words long.
 Regular integral format.
 Two-electron integral symmetry is turned on.
 R6Disp:  Grimme-D3(BJ) Dispersion energy=       -0.0064247241 Hartrees.
 Nuclear repulsion after empirical dispersion term =      130.7940817830 Hartrees.
 Leave Link  301 at Thu Aug 20 15:10:58 2020, MaxMem=  2147483648 cpu:         0.5
 (Enter /opt/cluster/programs/g09/g09_d.01/g09/l302.exe)
 NPDir=0 NMtPBC=     1 NCelOv=     1 NCel=       1 NClECP=     1 NCelD=      1
         NCelK=      1 NCelE2=     1 NClLst=     1 CellRange=     0.0.
 One-electron integrals computed using PRISM.
   1 Symmetry operations used in ECPInt.
 ECPInt:  NShTT=   14196 NPrTT=   30597 LenC2=   13878 LenP2D=   25993.
 LDataN:  DoStor=T MaxTD1= 8 Len=  415
 NBasis=   528 RedAO= T EigKep=  3.74D-05  NBF=   528
 NBsUse=   528 1.00D-06 EigRej= -1.00D+00 NBFU=   528
 Precomputing XC quadrature grid using
 IXCGrd= 4 IRadAn=           0 IRanWt=          -1 IRanGd=           0 AccXCQ= 0.00D+00.
 Generated NRdTot=       0 NPtTot=           0 NUsed=           0 NTot=          32
 NSgBfM=   638   638   638   638   638 MxSgAt=    14 MxSgA2=    14.
 Leave Link  302 at Thu Aug 20 15:10:59 2020, MaxMem=  2147483648 cpu:         4.6
 (Enter /opt/cluster/programs/g09/g09_d.01/g09/l303.exe)
 DipDrv:  MaxL=1.
 Leave Link  303 at Thu Aug 20 15:10:59 2020, MaxMem=  2147483648 cpu:         0.5
 (Enter /opt/cluster/programs/g09/g09_d.01/g09/l401.exe)
 Initial guess from the checkpoint file:  "butane_opt.chk"
 B after Tr=     0.000000    0.000000    0.000000
         Rot=    1.000000    0.000001    0.000000    0.000655 Ang=   0.08 deg.
 Guess basis will be translated and rotated to current coordinates.
 JPrj=2 DoOrth=T DoCkMO=T.
 Generating alternative initial guess.
 ExpMin= 7.60D-02 ExpMax= 6.70D+04 ExpMxC= 6.47D+02 IAcc=2 IRadAn=         4 AccDes= 0.00D+00
 Harris functional with IExCor=  419 and IRadAn=       4 diagonalized for initial guess.
 HarFok:  IExCor=  419 AccDes= 0.00D+00 IRadAn=         4 IDoV= 1 UseB2=F ITyADJ=14
 ICtDFT=  3500011 ScaDFX=  1.000000  1.000000  1.000000  1.000000
 FoFCou: FMM=F IPFlag=           0 FMFlag=      100000 FMFlg1=           0
         NFxFlg=           0 DoJE=T BraDBF=F KetDBF=T FulRan=T
         wScrn=  0.000000 ICntrl=     500 IOpCl=  0 I1Cent=   200000004 NGrid=           0
         NMat0=    1 NMatS0=      1 NMatT0=    0 NMatD0=    1 NMtDS0=    0 NMtDT0=    0
 Petite list used in FoFCou.
 Harris En= -158.631412491005    
 Leave Link  401 at Thu Aug 20 15:11:01 2020, MaxMem=  2147483648 cpu:        18.0
 (Enter /opt/cluster/programs/g09/g09_d.01/g09/l502.exe)
 Closed shell SCF:
 Using DIIS extrapolation, IDIIS=  1040.
 Integral symmetry usage will be decided dynamically.
 IVT=     1249338 IEndB=     1249338 NGot=  2147483648 MDV=  2146658633
 LenX=  2146658633 LenY=  2146250951
 Requested convergence on RMS density matrix=1.00D-08 within 128 cycles.
 Requested convergence on MAX density matrix=1.00D-06.
 Requested convergence on             energy=1.00D-06.
 No special actions if energy rises.
 Fock matrices will be formed incrementally for  20 cycles.
 Integral accuracy reduced to 1.0D-05 until final iterations.

 Cycle   1  Pass 0  IDiag  1:
 FoFJK:  IHMeth= 1 ICntrl=       0 DoSepK=F KAlg= 0 I1Cent=   0 FoldK=F
 IRaf= 940000000 NMat=   1 IRICut=       1 DoRegI=T DoRafI=F ISym2E= 0.
 FoFCou: FMM=F IPFlag=           0 FMFlag=      100000 FMFlg1=           0
         NFxFlg=           0 DoJE=F BraDBF=F KetDBF=F FulRan=T
         wScrn=  0.000000 ICntrl=       0 IOpCl=  0 I1Cent=           0 NGrid=           0
         NMat0=    1 NMatS0=      1 NMatT0=    0 NMatD0=    1 NMtDS0=    0 NMtDT0=    0
 Symmetry not used in FoFCou.
 E= -158.133668925102    
 DIIS: error= 1.01D-03 at cycle   1 NSaved=   1.
 NSaved= 1 IEnMin= 1 EnMin= -158.133668925102     IErMin= 1 ErrMin= 1.01D-03
 ErrMax= 1.01D-03  0.00D+00 EMaxC= 1.00D-01 BMatC= 2.62D-04 BMatP= 2.62D-04
 IDIUse=3 WtCom= 9.90D-01 WtEn= 1.01D-02
 Coeff-Com:  0.100D+01
 Coeff-En:   0.100D+01
 Coeff:      0.100D+01
 Gap=     1.093 Goal=   None    Shift=    0.000
 GapD=    1.093 DampG=2.000 DampE=1.000 DampFc=2.0000 IDamp=-1.
 RMSDP=3.41D-05 MaxDP=1.80D-03              OVMax= 4.23D-03

 Cycle   2  Pass 0  IDiag  1:
 RMSU=  3.41D-05    CP:  1.00D+00
 E= -158.133869936555     Delta-E=       -0.000201011453 Rises=F Damp=F
 DIIS: error= 1.99D-04 at cycle   2 NSaved=   2.
 NSaved= 2 IEnMin= 2 EnMin= -158.133869936555     IErMin= 2 ErrMin= 1.99D-04
 ErrMax= 1.99D-04  0.00D+00 EMaxC= 1.00D-01 BMatC= 7.46D-06 BMatP= 2.62D-04
 IDIUse=3 WtCom= 9.98D-01 WtEn= 1.99D-03
 Coeff-Com: -0.243D-02 0.100D+01
 Coeff-En:   0.000D+00 0.100D+01
 Coeff:     -0.242D-02 0.100D+01
 Gap=     0.439 Goal=   None    Shift=    0.000
 RMSDP=5.41D-06 MaxDP=2.93D-04 DE=-2.01D-04 OVMax= 9.56D-04

 Initial convergence to 1.0D-05 achieved.  Increase integral accuracy.
 Cycle   3  Pass 1  IDiag  1:
 E= -158.133897903433     Delta-E=       -0.000027966878 Rises=F Damp=F
 DIIS: error= 1.32D-04 at cycle   1 NSaved=   1.
 NSaved= 1 IEnMin= 1 EnMin= -158.133897903433     IErMin= 1 ErrMin= 1.32D-04
 ErrMax= 1.32D-04  0.00D+00 EMaxC= 1.00D-01 BMatC= 3.51D-06 BMatP= 3.51D-06
 IDIUse=3 WtCom= 9.99D-01 WtEn= 1.32D-03
 Coeff-Com:  0.100D+01
 Coeff-En:   0.100D+01
 Coeff:      0.100D+01
 Gap=     0.439 Goal=   None    Shift=    0.000
 RMSDP=5.41D-06 MaxDP=2.93D-04 DE=-2.80D-05 OVMax= 5.92D-04

 Cycle   4  Pass 1  IDiag  1:
 RMSU=  2.37D-05    CP:  1.00D+00
 E= -158.133899245073     Delta-E=       -0.000001341640 Rises=F Damp=F
 DIIS: error= 1.09D-04 at cycle   2 NSaved=   2.
 NSaved= 2 IEnMin= 2 EnMin= -158.133899245073     IErMin= 2 ErrMin= 1.09D-04
 ErrMax= 1.09D-04  0.00D+00 EMaxC= 1.00D-01 BMatC= 1.92D-06 BMatP= 3.51D-06
 IDIUse=3 WtCom= 9.99D-01 WtEn= 1.09D-03
 Coeff-Com:  0.422D+00 0.578D+00
 Coeff-En:   0.335D+00 0.665D+00
 Coeff:      0.422D+00 0.578D+00
 Gap=     0.439 Goal=   None    Shift=    0.000
 RMSDP=1.37D-06 MaxDP=9.82D-05 DE=-1.34D-06 OVMax= 2.75D-04

 Cycle   5  Pass 1  IDiag  1:
 RMSU=  1.33D-06    CP:  1.00D+00  1.01D+00
 E= -158.133901079007     Delta-E=       -0.000001833934 Rises=F Damp=F
 DIIS: error= 6.34D-06 at cycle   3 NSaved=   3.
 NSaved= 3 IEnMin= 3 EnMin= -158.133901079007     IErMin= 3 ErrMin= 6.34D-06
 ErrMax= 6.34D-06  0.00D+00 EMaxC= 1.00D-01 BMatC= 5.44D-09 BMatP= 1.92D-06
 IDIUse=1 WtCom= 1.00D+00 WtEn= 0.00D+00
 Coeff-Com: -0.124D-01 0.286D-01 0.984D+00
 Coeff:     -0.124D-01 0.286D-01 0.984D+00
 Gap=     0.439 Goal=   None    Shift=    0.000
 RMSDP=3.88D-07 MaxDP=2.30D-05 DE=-1.83D-06 OVMax= 2.66D-05

 Cycle   6  Pass 1  IDiag  1:
 RMSU=  1.75D-07    CP:  1.00D+00  1.03D+00  1.01D+00
 E= -158.133901085393     Delta-E=       -0.000000006386 Rises=F Damp=F
 DIIS: error= 1.55D-06 at cycle   4 NSaved=   4.
 NSaved= 4 IEnMin= 4 EnMin= -158.133901085393     IErMin= 4 ErrMin= 1.55D-06
 ErrMax= 1.55D-06  0.00D+00 EMaxC= 1.00D-01 BMatC= 4.02D-10 BMatP= 5.44D-09
 IDIUse=1 WtCom= 1.00D+00 WtEn= 0.00D+00
 Coeff-Com: -0.749D-02 0.179D-02 0.271D+00 0.735D+00
 Coeff:     -0.749D-02 0.179D-02 0.271D+00 0.735D+00
 Gap=     0.439 Goal=   None    Shift=    0.000
 RMSDP=3.51D-08 MaxDP=2.31D-06 DE=-6.39D-09 OVMax= 6.45D-06

 Cycle   7  Pass 1  IDiag  1:
 RMSU=  2.85D-08    CP:  1.00D+00  1.03D+00  1.01D+00  1.09D+00
 E= -158.133901085796     Delta-E=       -0.000000000403 Rises=F Damp=F
 DIIS: error= 7.45D-07 at cycle   5 NSaved=   5.
 NSaved= 5 IEnMin= 5 EnMin= -158.133901085796     IErMin= 5 ErrMin= 7.45D-07
 ErrMax= 7.45D-07  0.00D+00 EMaxC= 1.00D-01 BMatC= 5.99D-11 BMatP= 4.02D-10
 IDIUse=1 WtCom= 1.00D+00 WtEn= 0.00D+00
 Coeff-Com: -0.357D-03-0.386D-02-0.638D-01 0.230D+00 0.838D+00
 Coeff:     -0.357D-03-0.386D-02-0.638D-01 0.230D+00 0.838D+00
 Gap=     0.439 Goal=   None    Shift=    0.000
 RMSDP=1.48D-08 MaxDP=6.53D-07 DE=-4.03D-10 OVMax= 2.77D-06

 Cycle   8  Pass 1  IDiag  1:
 RMSU=  9.88D-09    CP:  1.00D+00  1.03D+00  1.01D+00  1.15D+00  1.00D+00
 E= -158.133901085864     Delta-E=       -0.000000000069 Rises=F Damp=F
 DIIS: error= 7.34D-08 at cycle   6 NSaved=   6.
 NSaved= 6 IEnMin= 6 EnMin= -158.133901085864     IErMin= 6 ErrMin= 7.34D-08
 ErrMax= 7.34D-08  0.00D+00 EMaxC= 1.00D-01 BMatC= 7.91D-13 BMatP= 5.99D-11
 IDIUse=1 WtCom= 1.00D+00 WtEn= 0.00D+00
 Coeff-Com:  0.315D-03-0.710D-03-0.232D-01-0.583D-02 0.107D+00 0.922D+00
 Coeff:      0.315D-03-0.710D-03-0.232D-01-0.583D-02 0.107D+00 0.922D+00
 Gap=     0.439 Goal=   None    Shift=    0.000
 RMSDP=2.81D-09 MaxDP=1.34D-07 DE=-6.89D-11 OVMax= 4.41D-07

 SCF Done:  E(RB2PLYPD3) =  -158.133901086     A.U. after    8 cycles
            NFock=  8  Conv=0.28D-08     -V/T= 2.0036
 KE= 1.575653061098D+02 PE=-6.275990657820D+02 EE= 1.811057768034D+02
 Leave Link  502 at Thu Aug 20 15:15:31 2020, MaxMem=  2147483648 cpu:      2156.9
 (Enter /opt/cluster/programs/g09/g09_d.01/g09/l801.exe)
 DoSCS=T DFT=T ScalE2(SS,OS)=  0.270000  0.270000
 ExpMin= 7.60D-02 ExpMax= 6.70D+04 ExpMxC= 6.47D+02 IAcc=3 IRadAn=         5 AccDes= 0.00D+00
 HarFok:  IExCor=  205 AccDes= 0.00D+00 IRadAn=         5 IDoV=-2 UseB2=F ITyADJ=14
 ICtDFT= 12500011 ScaDFX=  1.000000  1.000000  1.000000  1.000000
 DSYEVD-2 returned Info=         115 IAlg= 4 N=    57 NDim=    57 NE2=    37660335 trying  DSYEV.
 Largest valence mixing into a core orbital is  1.14D-04
 Largest core mixing into a valence orbital is  1.79D-05
 Range of M.O.s used for correlation:     5   528
 NBasis=   528 NAE=    17 NBE=    17 NFC=     4 NFV=     0
 NROrb=    524 NOA=    13 NOB=    13 NVA=   511 NVB=   511

 **** Warning!!: The largest alpha MO coefficient is  0.24946550D+02

 Leave Link  801 at Thu Aug 20 15:15:32 2020, MaxMem=  2147483648 cpu:         1.1
 (Enter /opt/cluster/programs/g09/g09_d.01/g09/l906.exe)
 DoSCS=T DFT=T ScalE2(SS,OS)=  0.270000  0.270000
 Frozen-core derivative calculation, NFC=   4 NFV=   0.
 FulOut=F Deriv=T AODrv=T NAtomX=    14
   MMem=          16  MDisk=          13 MDiskD=          13
  W3Min=     5726688 MinDsk=    10440787 NBas6D=         638
 NBas2D=      205689    NTT=      203841    LW2=     9246618
    MDV=  2144557336 MDiskM=        7462 NBas2p=      191816
 Fully direct method using O(ONN) memory.
 IMap=   1   2   3   4   5   6   7   8   9  10  11  12  13  14  15  16  17
 JobTyp=1 Pass  1:  I=   5 to   5 NPSUse=  8 ParTrn=T ParDer=T DoDerP=T.
 JobTyp=1 Pass  2:  I=   6 to   6 NPSUse=  8 ParTrn=T ParDer=T DoDerP=T.
 JobTyp=1 Pass  3:  I=   7 to   7 NPSUse=  8 ParTrn=T ParDer=T DoDerP=T.
 JobTyp=1 Pass  4:  I=   8 to   8 NPSUse=  8 ParTrn=T ParDer=T DoDerP=T.
 JobTyp=1 Pass  5:  I=   9 to   9 NPSUse=  8 ParTrn=T ParDer=T DoDerP=T.
 JobTyp=1 Pass  6:  I=  10 to  10 NPSUse=  8 ParTrn=T ParDer=T DoDerP=T.
 JobTyp=1 Pass  7:  I=  11 to  11 NPSUse=  8 ParTrn=T ParDer=T DoDerP=T.
 JobTyp=1 Pass  8:  I=  12 to  12 NPSUse=  8 ParTrn=T ParDer=T DoDerP=T.
 JobTyp=1 Pass  9:  I=  13 to  13 NPSUse=  8 ParTrn=T ParDer=T DoDerP=T.
 JobTyp=1 Pass 10:  I=  14 to  14 NPSUse=  8 ParTrn=T ParDer=T DoDerP=T.
 JobTyp=1 Pass 11:  I=  15 to  15 NPSUse=  8 ParTrn=T ParDer=T DoDerP=T.
 JobTyp=1 Pass 12:  I=  16 to  16 NPSUse=  8 ParTrn=T ParDer=T DoDerP=T.
 JobTyp=1 Pass 13:  I=  17 to  17 NPSUse=  8 ParTrn=T ParDer=T DoDerP=T.
 Spin components of T(2) and E(2):
     alpha-alpha T2 =       0.3969840639D-01 E2=     -0.2607062097D-01
     alpha-beta  T2 =       0.2597936383D+00 E2=     -0.1933668059D+00
     beta-beta   T2 =       0.3969840639D-01 E2=     -0.2607062097D-01
 The integrals were generated  13 times.
 E2(B2PLYPD3) =    -0.2455080478D+00 E(B2PLYPD3) =    -0.15837940913370D+03
 Leave Link  906 at Thu Aug 20 17:47:04 2020, MaxMem=  2147483648 cpu:     72585.8
 (Enter /opt/cluster/programs/g09/g09_d.01/g09/l1002.exe)
 Minotr:  Closed shell wavefunction.
          Computing MP2/KS-MP2 derivatives.
          Using Z-Vector for PSCF gradient.
          Skipping F1 and S1 gradient terms here.
          IDoAtm=11111111111111
          Frozen-core window.
          Direct CPHF calculation.
          Differentiating once with respect to electric field.
                with respect to dipole field.
          Differentiating once with respect to nuclear coordinates.
          Requested convergence is 1.0D-10 RMS, and 1.0D-09 maximum.
          NewPWx=F KeepS1=T KeepF1=T KeepIn=T MapXYZ=F SortEE=F KeepMc=T.
          MDV=    2147482980 using IRadAn=       0.
 Using stored XC quadrature information.
          Solving linear equations separately, MaxMat=       0.
          There are     1 degrees of freedom in the 1st order CPHF.  IDoFFX=0 NUNeed=     1.
 FoFJK:  IHMeth= 1 ICntrl=       0 DoSepK=F KAlg= 0 I1Cent=   0 FoldK=F
 IRaf= 950000000 NMat=   1 IRICut=       1 DoRegI=T DoRafI=F ISym2E=-1.
 FoFCou: FMM=F IPFlag=           0 FMFlag=      100000 FMFlg1=           0
         NFxFlg=           0 DoJE=F BraDBF=F KetDBF=F FulRan=T
         wScrn=  0.000000 ICntrl=       0 IOpCl=  0 I1Cent=           0 NGrid=           0
[...]
                           !   Optimized Parameters   !
                           ! (Angstroms and Degrees)  !
 --------------------------                            --------------------------
 ! Name  Definition              Value          Derivative Info.                !
 --------------------------------------------------------------------------------
 ! R1    R(1,2)                  1.5245         -DE/DX =   -0.0002              !
 ! R2    R(1,3)                  1.0884         -DE/DX =    0.0                 !
 ! R3    R(1,4)                  1.0894         -DE/DX =    0.0001              !
 ! R4    R(1,5)                  1.0894         -DE/DX =    0.0001              !
 ! R5    R(2,6)                  1.5247         -DE/DX =    0.0                 !
 ! R6    R(2,7)                  1.0918         -DE/DX =    0.0001              !
 ! R7    R(2,8)                  1.0918         -DE/DX =    0.0001              !
 ! R8    R(6,9)                  1.5245         -DE/DX =   -0.0002              !
 ! R9    R(6,10)                 1.0918         -DE/DX =    0.0001              !
 ! R10   R(6,11)                 1.0918         -DE/DX =    0.0001              !
 ! R11   R(9,12)                 1.0894         -DE/DX =    0.0001              !
 ! R12   R(9,13)                 1.0884         -DE/DX =    0.0                 !
 ! R13   R(9,14)                 1.0894         -DE/DX =    0.0001              !
 ! A1    A(2,1,3)              111.578          -DE/DX =    0.0                 !
 ! A2    A(2,1,4)              110.962          -DE/DX =    0.0                 !
 ! A3    A(2,1,5)              110.9622         -DE/DX =    0.0                 !
 ! A4    A(3,1,4)              107.7733         -DE/DX =    0.0                 !
 ! A5    A(3,1,5)              107.7731         -DE/DX =    0.0                 !
 ! A6    A(4,1,5)              107.6211         -DE/DX =    0.0                 !
 ! A7    A(1,2,6)              112.9398         -DE/DX =    0.0                 !
 ! A8    A(1,2,7)              109.6049         -DE/DX =    0.0                 !
 ! A9    A(1,2,8)              109.6051         -DE/DX =    0.0                 !
 ! A10   A(6,2,7)              109.1143         -DE/DX =    0.0                 !
 ! A11   A(6,2,8)              109.1135         -DE/DX =    0.0                 !
 ! A12   A(7,2,8)              106.2404         -DE/DX =    0.0                 !
 ! A13   A(2,6,9)              112.9398         -DE/DX =    0.0                 !
 ! A14   A(2,6,10)             109.1135         -DE/DX =    0.0                 !
 ! A15   A(2,6,11)             109.1143         -DE/DX =    0.0                 !
 ! A16   A(9,6,10)             109.6051         -DE/DX =    0.0                 !
 ! A17   A(9,6,11)             109.605          -DE/DX =    0.0                 !
 ! A18   A(10,6,11)            106.2403         -DE/DX =    0.0                 !
 ! A19   A(6,9,12)             110.9623         -DE/DX =    0.0                 !
 ! A20   A(6,9,13)             111.578          -DE/DX =    0.0                 !
 ! A21   A(6,9,14)             110.962          -DE/DX =    0.0                 !
 ! A22   A(12,9,13)            107.773          -DE/DX =    0.0                 !
 ! A23   A(12,9,14)            107.621          -DE/DX =    0.0                 !
 ! A24   A(13,9,14)            107.7733         -DE/DX =    0.0                 !
 ! D1    D(3,1,2,6)            180.0149         -DE/DX =    0.0                 !
 ! D2    D(3,1,2,7)             58.1307         -DE/DX =    0.0                 !
 ! D3    D(3,1,2,8)            -58.1018         -DE/DX =    0.0                 !
 ! D4    D(4,1,2,6)             59.8141         -DE/DX =    0.0                 !
 ! D5    D(4,1,2,7)            -62.0702         -DE/DX =    0.0                 !
 ! D6    D(4,1,2,8)           -178.3027         -DE/DX =    0.0                 !
 ! D7    D(5,1,2,6)            -59.7845         -DE/DX =    0.0                 !
 ! D8    D(5,1,2,7)            178.3313         -DE/DX =    0.0                 !
 ! D9    D(5,1,2,8)             62.0988         -DE/DX =    0.0                 !
 ! D10   D(1,2,6,9)            180.0181         -DE/DX =    0.0                 !
 ! D11   D(1,2,6,10)            57.8586         -DE/DX =    0.0                 !
 ! D12   D(1,2,6,11)           -57.8219         -DE/DX =    0.0                 !
 ! D13   D(7,2,6,9)            -57.822          -DE/DX =    0.0                 !
 ! D14   D(7,2,6,10)           180.0185         -DE/DX =    0.0                 !
 ! D15   D(7,2,6,11)            64.3379         -DE/DX =    0.0001              !
 ! D16   D(8,2,6,9)             57.8587         -DE/DX =    0.0                 !
 ! D17   D(8,2,6,10)           -64.3008         -DE/DX =   -0.0001              !
 ! D18   D(8,2,6,11)           180.0186         -DE/DX =    0.0                 !
 ! D19   D(2,6,9,12)           -59.7844         -DE/DX =    0.0                 !
 ! D20   D(2,6,9,13)           180.0149         -DE/DX =    0.0                 !
 ! D21   D(2,6,9,14)            59.8141         -DE/DX =    0.0                 !
 ! D22   D(10,6,9,12)           62.0988         -DE/DX =    0.0                 !
 ! D23   D(10,6,9,13)          -58.1018         -DE/DX =    0.0                 !
 ! D24   D(10,6,9,14)         -178.3026         -DE/DX =    0.0                 !
 ! D25   D(11,6,9,12)          178.3313         -DE/DX =    0.0                 !
 ! D26   D(11,6,9,13)           58.1307         -DE/DX =    0.0                 !
 ! D27   D(11,6,9,14)          -62.0701         -DE/DX =    0.0                 !
 --------------------------------------------------------------------------------
 GradGradGradGradGradGradGradGradGradGradGradGradGradGradGradGradGradGrad

 Leave Link  103 at Fri Aug 21 16:35:43 2020, MaxMem=  2147483648 cpu:         2.3
 (Enter /opt/cluster/programs/g09/g09_d.01/g09/l9999.exe)
 1\1\GINC-NODE33\Freq\RB2PLYPD3-FC\def2QZVP\C4H10\BOITTIER\21-Aug-2020\
 0\\#P Geom=AllCheck Guess=TCheck SCRF=Check GenChk RB2PLYPD3(FC)/def2Q
 ZVP Freq\\butane_opt\\0,1\C,-3.9445540715,0.2645577677,0.0173782809\C,
 -2.7003182917,-0.6160943809,0.0389045346\H,-4.8560506319,-0.3298366843
 ,0.0381736039\H,-3.9700853156,0.8811900556,-0.8802996428\H,-3.96380266
 17,0.9330379321,0.8773083591\C,-1.4039338153,0.1860497313,0.0109689507
 \H,-2.7182354381,-1.296453076,-0.8148224168\H,-2.7122395288,-1.2453096
 182,0.9310940605\C,-0.1596997313,-0.6946145521,0.0320507218\H,-1.38588
 25225,0.8661675075,0.8648836787\H,-1.3921466736,0.8155177183,-0.881045
 5806\H,-0.1342806226,-1.3118706618,0.9293048614\H,0.7517990135,-0.1002
 047209,0.0117900697\H,-0.1403397088,-1.3624970182,-0.8283394812\\Versi
 on=ES64L-G09RevD.01\State=1-A\HF=-158.133944\MP2=-158.3794515\RMSD=1.4
 92e-09\RMSF=1.567e-04\ZeroPoint=0.1326312\Thermal=0.1383927\Dipole=0.0
 000001,0.0000003,0.0000109\DipoleDeriv=0.0112767,0.0361923,-0.0006789,
 0.0107328,0.0920137,0.0008434,0.0000717,0.0007529,0.1219419,0.0853866,
 -0.010554,0.0005521,0.0015672,0.0977254,0.001501,0.0001873,0.0015458,0
 .1494573,-0.1561688,-0.0559419,0.0024397,-0.1000038,-0.0126321,0.00270
 04,0.0037431,0.002543,0.0666679,0.0351051,-0.001034,0.0271475,0.042026
 5,-0.0248008,0.0879227,-0.0204692,0.1107445,-0.0899403,0.0350561,-0.00
 34644,-0.0278651,0.0424945,-0.0367194,-0.0913663,0.017127,-0.1138679,-
 0.0779633,0.0853867,-0.0105554,0.0005135,0.0015665,0.0977257,0.0015068
 ,0.0001715,0.0015472,0.1494571,-0.0052718,0.0173864,0.0134408,0.001253
 9,-0.0643391,-0.0978462,-0.0003888,-0.1271372,-0.0785873,-0.0053837,0.
 0174162,-0.0150167,0.0019295,-0.0512478,0.0962377,-0.000259,0.1254185,
 -0.091576,0.0112773,0.0361926,-0.000654,0.0107325,0.0920131,0.0008275,
 0.0000798,0.0007391,0.1219428,-0.0052845,0.017358,0.0134427,0.0012429,
 -0.0642791,-0.097845,-0.0003938,-0.1271365,-0.0786441,-0.0053712,0.017
 4451,-0.0150164,0.0019404,-0.0513074,0.096246,-0.0002644,0.1254258,-0.
 0915198,0.0351175,-0.0010701,0.0271613,0.0420307,-0.0249324,0.0879731,
 -0.0204269,0.1107873,-0.0898119,-0.1561698,-0.0559438,0.0023873,-0.100
 0067,-0.0126362,0.0026305,0.0036529,0.0024785,0.0666724,0.0350438,-0.0
 034268,-0.0278539,0.0424933,-0.0365835,-0.0913317,0.0171687,-0.113841,
 -0.0780967\Polar=59.7087481,-2.4506489,50.3023928,0.0271352,-0.085028,
 47.0928413\PG=C01 [X(C4H10)]\NImag=0\\0.51183609,0.05085994,0.53800622
 ,-0.00129334,0.00074586,0.56951165,-0.15248770,0.05605205,-0.00139604,
 0.45673690,0.05361864,-0.12225822,0.00104318,-0.00299010,0.53758949,-0
 .00132459,0.00103219,-0.08043051,0.00055977,0.00166881,0.59417103,-0.2
 2959445,-0.12279411,0.00427184,-0.02127163,-0.01667573,0.00056133,0.25
 174429,-0.12405119,-0.13069982,0.00288040,0.01897306,0.01278886,-0.000
 48660,0.13321268,0.13997468,0.00430949,0.00287607,-0.04819137,-0.00048
 959,-0.00035992,-0.00144196,-0.00466138,-0.00321814,0.04716338,-0.0476
 0994,0.00039244,-0.00186430,-0.00140152,0.01595240,-0.02435873,0.00082
 874,-0.01442895,0.02376036,0.05100874,0.00087589,-0.12924725,0.1208254
 3,0.00057968,-0.01242560,0.01737440,0.00084181,-0.01051476,0.01520840,
 -0.00456936,0.13992769,-0.00261521,0.12121220,-0.22893376,0.00006006,-
 0.00032161,0.00030351,0.00034842,-0.00086061,0.00006856,0.00273283,-0.
 13460564,0.24673944,-0.04758565,-0.00041998,0.00061970,-0.00123208,0.0
 1736525,0.02339173,0.00065931,-0.01579597,-0.02286991,-0.00113401,-0.0
 0005867,0.00022325,0.05098131,0.00011002,-0.14383687,-0.12585316,0.000
 45455,-0.01338513,-0.01657545,0.00071337,-0.01131935,-0.01453660,0.000
 03959,0.01238325,0.01517586,-0.00370055,0.15613999,0.00134018,-0.12623
 431,-0.21436460,-0.00007422,0.00100415,0.00109521,-0.00039563,0.001646
 21,0.00104241,-0.00036599,-0.01715471,-0.02112751,-0.00114730,0.139984
 93,0.23055052,-0.03057212,-0.01345013,0.00049997,-0.15066885,-0.052011
 48,0.00176239,-0.00321139,0.00243503,-0.00006019,0.00199358,-0.0011910
 9,0.00025335,0.00200120,-0.00120313,-0.00019674,0.45673769,0.01752991,
 0.01310061,-0.00045867,-0.05201153,-0.11709211,0.00124134,0.00584276,-
 0.00270698,0.00006733,0.00066513,0.00048912,-0.00019165,0.00074040,0.0
 0051808,0.00016448,-0.00299013,0.53758891,-0.00040708,-0.00035093,-0.0
 0048060,0.00176064,0.00123944,-0.08084940,-0.00015809,0.00007822,0.000
 25337,-0.00130896,-0.00030249,0.00013304,0.00125430,0.00028723,0.00009
 913,0.00057997,0.00165394,0.59417112,-0.00134043,0.01859275,0.02337740
 ,-0.04673022,-0.00271801,-0.00356709,0.00094506,-0.00094117,0.00020048
 ,0.00121215,-0.00073891,-0.00049269,-0.00457081,0.00384067,-0.00035681
 ,-0.00331777,-0.01851839,-0.02399358,0.05634437,0.00068875,-0.01256772
 ,-0.01561642,-0.00261221,-0.14282416,-0.12080893,-0.00010026,0.0008649
 0,0.00028642,-0.00080635,0.00018535,0.00014693,0.00348523,-0.00159782,
 0.00030556,-0.00175594,-0.01293547,-0.01585467,0.00279430,0.15697101,-
 0.00010977,0.00140168,0.00122419,-0.00346607,-0.12194426,-0.20911290,0
 .00064428,-0.00010086,0.00000178,0.00039209,-0.00018107,0.00077486,-0.
 00011346,0.00067301,0.00167051,0.00028442,0.00049787,0.00024375,0.0038
 7416,0.13546933,0.22421566,-0.00150619,0.01718368,-0.02441167,-0.04668
 884,-0.00171597,0.00253533,0.00094035,-0.00095085,-0.00015153,-0.00456
 842,0.00385332,0.00017473,0.00121222,-0.00070704,0.00053221,-0.0031495
 5,-0.01708477,0.02505505,-0.00060751,0.00032094,-0.00057501,0.05629841
 ,0.00080383,-0.01169087,0.01637358,-0.00162213,-0.12886537,0.11611811,
 -0.00014066,0.00085226,-0.00033546,0.00348473,-0.00164541,-0.00013567,
 -0.00082869,0.00018899,-0.00010689,-0.00165819,-0.01199316,0.01657811,
 0.00024257,0.01185165,-0.01664927,0.00168456,0.14136987,0.00008102,-0.
 00076117,0.00051273,0.00242848,0.11725508,-0.22311574,-0.00064391,0.00
 005737,0.00002188,-0.00004799,-0.00050446,0.00171607,-0.00034733,0.000
 22050,0.00076848,-0.00016657,0.00033496,-0.00086788,0.00041060,0.01465
 414,-0.02214114,-0.00279683,-0.13062625,0.23986595,-0.00368539,-0.0036
 7496,0.00011971,-0.03057213,0.01753000,-0.00040375,-0.00108429,0.00109
 488,-0.00002639,-0.00006998,-0.00000925,-0.00015055,-0.00006991,0.0000
 0152,0.00015343,-0.15248809,0.05361981,-0.00129541,0.00188246,0.001082
 23,0.00010986,0.00188751,0.00106988,-0.00018382,0.51183678,-0.00367502
 ,-0.00300615,0.00008999,-0.01345026,0.01310078,-0.00034714,-0.00158079
 ,0.00083304,-0.00000174,0.00007243,0.00010318,-0.00028796,0.00006449,0
 .00013542,0.00029825,0.05605324,-0.12225961,0.00101444,-0.00067515,0.0
 0058237,0.00022367,-0.00062266,0.00054608,-0.00024124,0.05085970,0.538
 00557,0.00011758,0.00008733,-0.00041044,0.00049545,-0.00045694,-0.0004
 8076,0.00005152,-0.00001055,0.00059681,0.00016686,-0.00025206,0.000322
 08,-0.00016773,0.00026369,0.00028963,-0.00136582,0.00102053,-0.0804295
 2,-0.00092981,0.00035332,0.00016299,0.00095537,-0.00038415,0.00019120,
 -0.00126687,0.00073481,0.56951167,0.00188191,-0.00067597,-0.00092952,-
 0.00332020,-0.01851425,-0.02399666,0.00032422,0.00012860,0.00034398,-0
 .00009725,0.00005712,-0.00003499,-0.00028436,0.00054341,0.00057187,-0.
 04673139,-0.00273582,-0.00359576,-0.00496667,-0.00334121,0.00015754,0.
 00120780,0.00073587,0.00043905,-0.00133904,0.01858453,0.02338511,0.056
 34567,0.00108101,0.00058117,0.00035400,-0.00175897,-0.01293486,-0.0158
 5688,0.00010278,0.00006521,0.00034027,-0.00007242,0.00005095,0.0000855
 7,-0.00049438,0.00066608,0.00015493,-0.00262793,-0.14275611,-0.1207911
 4,-0.00334235,-0.00149037,0.00033138,0.00070991,0.00017854,0.00015028,
 0.00068590,-0.01256133,-0.01562088,0.00281552,0.15689631,0.00010912,0.
 00022320,0.00016170,0.00028680,0.00049927,0.00024445,-0.00010505,0.000
 29937,0.00023610,-0.00000070,-0.00007900,-0.00009059,-0.00060815,0.000
 17446,0.00013455,-0.00349479,-0.12192740,-0.20918218,0.00015792,0.0003
 3219,0.00182650,-0.00048367,-0.00011585,0.00085571,-0.00010833,0.00139
 352,0.00121607,0.00390023,0.13545058,0.22429203,0.00188804,-0.00062183
 ,0.00095563,-0.00314712,-0.01708907,0.02505219,0.00032281,0.00010609,-
 0.00035087,-0.00028421,0.00050686,-0.00059972,-0.00009724,0.00006003,0
 .00003212,-0.04668816,-0.00169952,0.00250593,0.00120679,0.00070941,-0.
 00048381,-0.00496718,-0.00334604,0.00008488,-0.00150751,0.01719229,-0.
 02440442,-0.00060752,0.00032367,-0.00057852,0.05629755,0.00107106,0.00
 054730,-0.00038347,-0.00165505,-0.01199383,0.01657590,0.00010673,0.000
 02847,-0.00032923,-0.00046001,0.00064512,-0.00018187,-0.00007331,0.000
 05015,-0.00009336,-0.00160775,-0.12893105,0.11614356,0.00073538,0.0001
 7799,-0.00011606,-0.00334488,-0.00151633,-0.00011359,0.00080672,-0.011
 69793,0.01636997,0.00023969,0.01185219,-0.01663974,0.00166456,0.141442
 00,-0.00018463,-0.00024171,0.00019247,-0.00016439,0.00033639,-0.000868
 54,0.00009828,-0.00028816,0.00027439,0.00063902,-0.00020759,0.00015554
 ,0.00000550,0.00007034,-0.00009068,0.00239915,0.11727960,-0.22304793,0
 .00043922,0.00015045,0.00085430,0.00008519,-0.00011277,0.00185297,0.00
 008237,-0.00076852,0.00052148,0.00040724,0.01466365,-0.02214172,-0.002
 76987,-0.13065341,0.23979141,-0.00006981,0.00007217,0.00016638,0.00199
 378,0.00066444,-0.00130846,0.00000531,-0.00007735,0.00009614,0.0001051
 5,-0.00020237,0.00017997,0.00001198,0.00001012,-0.00002068,-0.00139921
 ,0.01596894,-0.02434924,-0.00009750,-0.00007288,-0.00000120,-0.0002841
 0,-0.00045921,0.00063896,-0.04760796,0.00037895,-0.00184079,0.00121121
 ,-0.00080625,0.00039191,-0.00456870,0.00348565,-0.00004576,0.05100821,
 -0.00000916,0.00010325,-0.00025279,-0.00119208,0.00049049,-0.00030144,
 0.00004361,0.00003807,-0.00005540,-0.00020257,0.00007318,-0.00007054,0
 .00001133,-0.00006287,0.00000496,0.00057765,-0.01243381,0.01736603,0.0
 0005754,0.00005101,-0.00007902,0.00050792,0.00064511,-0.00020795,0.000
 86340,-0.12941631,0.12089323,-0.00073834,0.00018467,-0.00018132,0.0038
 5207,-0.00164513,-0.00050664,-0.00455436,0.14011271,-0.00015057,-0.000
 28786,0.00032170,0.00025335,-0.00019203,0.00013414,-0.00009911,0.00003
 745,-0.00001761,0.00017985,-0.00007049,-0.00002236,0.00001982,-0.00000
 261,-0.00002127,0.00005837,-0.00032696,0.00031105,-0.00003550,0.000085
 61,-0.00009128,-0.00059950,-0.00018138,0.00015525,-0.00259084,0.121277
 95,-0.22876267,-0.00049316,0.00014674,0.00077381,0.00017655,-0.0001366
 7,0.00171572,0.00270569,-0.13467920,0.24655073,-0.00108428,-0.00158076
 ,0.00005245,-0.00321138,0.00584275,-0.00015822,-0.00061366,0.00037818,
 -0.00000894,0.00000528,0.00004354,-0.00009910,0.00000533,0.00004968,0.
 00009623,-0.02127162,-0.01667606,0.00055007,0.00032454,0.00010317,-0.0
 0010488,0.00032250,0.00010636,0.00009848,-0.22959507,-0.12279735,0.004
 16203,0.00094611,-0.00010092,0.00064441,0.00093930,-0.00013999,-0.0006
 4382,0.00082562,0.00083959,0.00034918,0.25174496,0.00109490,0.00083305
 ,-0.00001092,0.00243510,-0.00270709,0.00007739,0.00037818,-0.00024352,
 0.00000614,-0.00007729,0.00003809,0.00003740,-0.00008309,0.00003893,-0
 .00004019,0.01897344,0.01278934,-0.00047707,0.00012840,0.00006516,0.00
 029949,0.00010627,0.00002855,-0.00028803,-0.12405450,-0.13070398,0.002
 80717,-0.00094115,0.00086583,-0.00010014,-0.00095088,0.00085140,0.0000
 5810,-0.01444567,-0.01052500,-0.00086981,0.13321626,0.13997944,-0.0000
 2564,-0.00000094,0.00059679,-0.00005744,0.00006434,0.00025348,-0.00000
 872,0.00000604,0.00001075,0.00009616,-0.00005549,-0.00001758,-0.000091
 63,0.00005178,-0.00001850,-0.00047745,-0.00035341,-0.00144244,0.000343
 56,0.00034065,0.00023597,-0.00035131,-0.00032884,0.00027449,0.00419767
 ,0.00280266,-0.04818630,0.00020014,0.00028690,0.00000255,-0.00015186,-
 0.00033498,0.00002103,0.02375030,0.01520139,0.00008171,-0.00454276,-0.
 00313510,0.04715772,-0.00007009,0.00006472,-0.00016821,0.00200100,0.00
 074112,0.00125475,0.00000531,-0.00008304,-0.00009165,0.00001169,0.0000
 1143,0.00001963,0.00010271,-0.00021225,-0.00016867,-0.00123432,0.01734
 925,0.02340216,-0.00028448,-0.00049518,-0.00060816,-0.00009700,-0.0000
 7288,0.00000499,-0.04758738,-0.00040440,0.00064154,-0.00457050,0.00348
 444,-0.00011118,0.00121315,-0.00082880,-0.00034751,-0.00113399,-0.0000
 5660,0.00022587,0.00066235,-0.01577997,-0.02288102,0.05098155,0.000001
 42,0.00013532,0.00026299,-0.00120213,0.00051674,0.00028830,0.00004961,
 0.00003896,0.00005186,0.00001023,-0.00006291,-0.00000242,-0.00021206,0
 .00008115,0.00006598,0.00045640,-0.01337775,-0.01658467,0.00054237,0.0
 0066609,0.00017412,0.00005959,0.00005009,0.00007037,0.00012467,-0.1436
 6112,-0.12580546,0.00384200,-0.00159826,0.00067087,-0.00070764,0.00018
 965,0.00022027,0.00003782,0.01238462,0.01519926,0.00071555,-0.01131019
 ,-0.01454499,-0.00371784,0.15594762,0.00015342,0.00029838,0.00029006,-
 0.00019680,0.00016410,0.00009799,0.00009622,-0.00004014,-0.00001848,-0
 .00002049,0.00000477,-0.00002130,-0.00016880,0.00006603,-0.00002787,-0
 .00007606,0.00099805,0.00108848,0.00057214,0.00015544,0.00013483,0.000
 03163,-0.00009327,-0.00008998,0.00136293,-0.12618869,-0.21454225,-0.00
 035507,0.00030463,0.00167102,0.00053177,-0.00010706,0.00076956,-0.0003
 6324,-0.01713132,-0.02112891,-0.00039512,0.00163557,0.00103032,-0.0011
 7253,0.13993352,0.23074654\\-0.00022569,0.00031541,-0.00000919,0.00022
 069,-0.00048615,0.00001369,0.00004932,0.00000630,0.00000056,-0.0000020
 7,-0.00010307,0.00005906,-0.00000206,-0.00010503,-0.00005367,-0.000220
 45,0.00048587,-0.00001315,-0.00002746,0.00014824,0.00004426,-0.0000288
 8,0.00014636,-0.00005236,0.00022523,-0.00031524,0.00000764,0.00002850,
 -0.00014905,-0.00004395,0.00002777,-0.00014533,0.00005267,0.00000175,0
 .00010167,-0.00005968,-0.00004921,-0.00000629,0.00000124,0.00000257,0.
 00010632,0.00005290\\\@


 SCIENCE IS A VERY HUMAN FORM OF KNOWLEDGE.
 WE ARE ALWAYS AT THE BRINK OF THE KNOWN,
 WE ALWAYS FEEL FORWARD FOR WHAT IS HOPED.
 EVERY JUDGEMENT IN SCIENCE STANDS ON THE EDGE OF ERROR, AND IS PERSONAL.
 SCIENCE IS A TRIBUTE TO WHAT WE CAN KNOW ALTHOUGH WE ARE FALLIBLE.

                     -- J. BRONOWSKI
 Job cpu time:       6 days  0 hours 20 minutes 36.0 seconds.
 File lengths (MBytes):  RWF= 113682 Int=      0 D2E=      0 Chk=     23 Scr=      1
 Normal termination of Gaussian 09 at Fri Aug 21 16:35:52 2020.
